
                                 *****************
                                 * O   R   C   A *
                                 *****************

                                            #,                                       
                                            ###                                      
                                            ####                                     
                                            #####                                    
                                            ######                                   
                                           ########,                                 
                                     ,,################,,,,,                         
                               ,,#################################,,                 
                          ,,##########################################,,             
                       ,#########################################, ''#####,          
                    ,#############################################,,   '####,        
                  ,##################################################,,,,####,       
                ,###########''''           ''''###############################       
              ,#####''   ,,,,##########,,,,          '''####'''          '####       
            ,##' ,,,,###########################,,,                        '##       
           ' ,,###''''                  '''############,,,                           
         ,,##''                                '''############,,,,        ,,,,,,###''
      ,#''                                            '''#######################'''  
     '                                                          ''''####''''         
             ,#######,   #######,   ,#######,      ##                                
            ,#'     '#,  ##    ##  ,#'     '#,    #''#        ######   ,####,        
            ##       ##  ##   ,#'  ##            #'  '#       #        #'  '#        
            ##       ##  #######   ##           ,######,      #####,   #    #        
            '#,     ,#'  ##    ##  '#,     ,#' ,#      #,         ##   #,  ,#        
             '#######'   ##     ##  '#######'  #'      '#     #####' # '####'        



                  #######################################################
                  #                        -***-                        #
                  #          Department of theory and spectroscopy      #
                  #    Directorship and core code : Frank Neese         #
                  #        Max Planck Institute fuer Kohlenforschung    #
                  #                Kaiser Wilhelm Platz 1               #
                  #                 D-45470 Muelheim/Ruhr               #
                  #                      Germany                        #
                  #                                                     #
                  #                  All rights reserved                #
                  #                        -***-                        #
                  #######################################################


                         Program Version 5.0.4 -  RELEASE  -


 With contributions from (in alphabetic order):
   Daniel Aravena         : Magnetic Suceptibility
   Michael Atanasov       : Ab Initio Ligand Field Theory (pilot matlab implementation)
   Alexander A. Auer      : GIAO ZORA, VPT2 properties, NMR spectrum
   Ute Becker             : Parallelization
   Giovanni Bistoni       : ED, misc. LED, open-shell LED, HFLD
   Martin Brehm           : Molecular dynamics
   Dmytro Bykov           : SCF Hessian
   Vijay G. Chilkuri      : MRCI spin determinant printing, contributions to CSF-ICE
   Dipayan Datta          : RHF DLPNO-CCSD density
   Achintya Kumar Dutta   : EOM-CC, STEOM-CC
   Dmitry Ganyushin       : Spin-Orbit,Spin-Spin,Magnetic field MRCI
   Miquel Garcia          : C-PCM and meta-GGA Hessian, CC/C-PCM, Gaussian charge scheme
   Yang Guo               : DLPNO-NEVPT2, F12-NEVPT2, CIM, IAO-localization
   Andreas Hansen         : Spin unrestricted coupled pair/coupled cluster methods
   Benjamin Helmich-Paris : MC-RPA, TRAH-SCF, COSX integrals
   Lee Huntington         : MR-EOM, pCC
   Robert Izsak           : Overlap fitted RIJCOSX, COSX-SCS-MP3, EOM
   Marcus Kettner         : VPT2
   Christian Kollmar      : KDIIS, OOCD, Brueckner-CCSD(T), CCSD density, CASPT2, CASPT2-K
   Simone Kossmann        : Meta GGA functionals, TD-DFT gradient, OOMP2, MP2 Hessian
   Martin Krupicka        : Initial AUTO-CI
   Lucas Lang             : DCDCAS
   Marvin Lechner         : AUTO-CI (C++ implementation), FIC-MRCC
   Dagmar Lenk            : GEPOL surface, SMD
   Dimitrios Liakos       : Extrapolation schemes; Compound Job, initial MDCI parallelization
   Dimitrios Manganas     : Further ROCIS development; embedding schemes
   Dimitrios Pantazis     : SARC Basis sets
   Anastasios Papadopoulos: AUTO-CI, single reference methods and gradients
   Taras Petrenko         : DFT Hessian,TD-DFT gradient, ASA, ECA, R-Raman, ABS, FL, XAS/XES, NRVS
   Peter Pinski           : DLPNO-MP2, DLPNO-MP2 Gradient
   Christoph Reimann      : Effective Core Potentials
   Marius Retegan         : Local ZFS, SOC
   Christoph Riplinger    : Optimizer, TS searches, QM/MM, DLPNO-CCSD(T), (RO)-DLPNO pert. Triples
   Tobias Risthaus        : Range-separated hybrids, TD-DFT gradient, RPA, STAB
   Michael Roemelt        : Original ROCIS implementation
   Masaaki Saitow         : Open-shell DLPNO-CCSD energy and density
   Barbara Sandhoefer     : DKH picture change effects
   Avijit Sen             : IP-ROCIS
   Kantharuban Sivalingam : CASSCF convergence, NEVPT2, FIC-MRCI
   Bernardo de Souza      : ESD, SOC TD-DFT
   Georgi Stoychev        : AutoAux, RI-MP2 NMR, DLPNO-MP2 response
   Willem Van den Heuvel  : Paramagnetic NMR
   Boris Wezisla          : Elementary symmetry handling
   Frank Wennmohs         : Technical directorship


 We gratefully acknowledge several colleagues who have allowed us to
 interface, adapt or use parts of their codes:
   Stefan Grimme, W. Hujo, H. Kruse, P. Pracht,  : VdW corrections, initial TS optimization,
                  C. Bannwarth, S. Ehlert          DFT functionals, gCP, sTDA/sTD-DF
   Ed Valeev, F. Pavosevic, A. Kumar             : LibInt (2-el integral package), F12 methods
   Garnet Chan, S. Sharma, J. Yang, R. Olivares  : DMRG
   Ulf Ekstrom                                   : XCFun DFT Library
   Mihaly Kallay                                 : mrcc  (arbitrary order and MRCC methods)
   Jiri Pittner, Ondrej Demel                    : Mk-CCSD
   Frank Weinhold                                : gennbo (NPA and NBO analysis)
   Christopher J. Cramer and Donald G. Truhlar   : smd solvation model
   Lars Goerigk                                  : TD-DFT with DH, B97 family of functionals
   V. Asgeirsson, H. Jonsson                     : NEB implementation
   FAccTs GmbH                                   : IRC, NEB, NEB-TS, DLPNO-Multilevel, CI-OPT
                                                   MM, QMMM, 2- and 3-layer-ONIOM, Crystal-QMMM,
                                                   LR-CPCM, SF, NACMEs, symmetry and pop. for TD-DFT,
                                                   nearIR, NL-DFT gradient (VV10), updates on ESD,
                                                   ML-optimized integration grids
   S Lehtola, MJT Oliveira, MAL Marques          : LibXC Library
   Liviu Ungur et al                             : ANISO software


 Your calculation uses the libint2 library for the computation of 2-el integrals
 For citations please refer to: http://libint.valeyev.net

 Your ORCA version has been built with support for libXC version: 5.1.0
 For citations please refer to: https://tddft.org/programs/libxc/

 This ORCA versions uses:
   CBLAS   interface :  Fast vector & matrix operations
   LAPACKE interface :  Fast linear algebra routines
   SCALAPACK package :  Parallel linear algebra routines
   Shared memory     :  Shared parallel matrices
   BLAS/LAPACK       :  OpenBLAS 0.3.15  USE64BITINT DYNAMIC_ARCH NO_AFFINITY Haswell SINGLE_THREADED
        Core in use  :  Haswell
   Copyright (c) 2011-2014, The OpenBLAS Project


================================================================================

----- Orbital basis set information -----
Your calculation utilizes the basis: def2-SVP
   F. Weigend and R. Ahlrichs, Phys. Chem. Chem. Phys. 7, 3297 (2005).

================================================================================
                                        WARNINGS
                       Please study these warnings very carefully!
================================================================================


WARNING: Geometry Optimization
  ===> : Switching off AutoStart
         For restart on a previous wavefunction, please use MOREAD

INFO   : the flag for use of the SHARK integral package has been found!

================================================================================
                                       INPUT FILE
================================================================================
NAME = freq.inp
|  1> ! RHF OPT FREQ def2-SVP PAL8
|  2> 
|  3> * xyz 0 1
|  4>   C   1.38328730900270      2.30861201152109      4.05310898988322
|  5>   C   1.36183561916426      1.42157163189341      2.82911528404962
|  6>   C   0.81270778323258      1.35510519647435      0.41501481727192
|  7>   C   -0.50850445368751      0.59520242039848      0.48109107780571
|  8>   C   1.95378520102934      0.46330829061383     -0.09328613338984
|  9>   C   4.36120992791643      0.11132567550915     -0.20109379291331
| 10>   N   1.13830991835494      2.06325819655215      1.64608407843041
| 11>   N   3.20570466778639      0.89649531307581      0.16330951010389
| 12>   O   1.71930298057271     -0.49469227105275     -0.76707007719942
| 13>   O   1.53017628341490      0.24256668284889      2.89079657482286
| 14>   H   0.88048746292137      3.02609363613559      1.68943107217470
| 15>   H   3.31470899279093      1.60769107532931      0.85133225727349
| 16>   H   4.23506124672461     -0.28104787981328     -1.20645160984078
| 17>   H   4.51680376555374     -0.73061780816489      0.47711415628422
| 18>   H   5.24498802536225      0.74755310436340     -0.18023703548140
| 19>   H   -0.73505007757742      0.15760155757405     -0.48769885481286
| 20>   H   -1.31259975635795      1.28031470515330      0.75717638728363
| 21>   H   -0.45778100709976     -0.20668828133864      1.21422574125078
| 22>   H   1.81064716462218      3.28955610025691      3.84497778636234
| 23>   H   1.95376975432826      1.81497864966271      4.83505751134801
| 24>   H   0.35970133381124      2.44783151559668      4.40685938242435
| 25>   H   0.72539785813378      2.13144047741041     -0.34885712313157
| 26> *
| 27> 
| 28>                          ****END OF INPUT****
================================================================================

                       *****************************
                       * Geometry Optimization Run *
                       *****************************

Geometry optimization settings:
Update method            Update   .... BFGS
Choice of coordinates    CoordSys .... Z-matrix Internals
Initial Hessian          InHess   .... Almoef's Model

Convergence Tolerances:
Energy Change            TolE     ....  5.0000e-06 Eh
Max. Gradient            TolMAXG  ....  3.0000e-04 Eh/bohr
RMS Gradient             TolRMSG  ....  1.0000e-04 Eh/bohr
Max. Displacement        TolMAXD  ....  4.0000e-03 bohr
RMS Displacement         TolRMSD  ....  2.0000e-03 bohr
Strict Convergence                ....  False
------------------------------------------------------------------------------
                        ORCA OPTIMIZATION COORDINATE SETUP
------------------------------------------------------------------------------

The optimization will be done in new redundant internal coordinates
Making redundant internal coordinates   ...  (new redundants) done
Evaluating the initial hessian          ...  (Almloef) done
Evaluating the coordinates              ...  done
Calculating the B-matrix                .... done
Calculating the G-matrix                .... done
Diagonalizing the G-matrix              .... done
Small eigenvalue found = 1.007e-02
Small eigenvalue found = 2.554e-02
The first mode is                       ....   38
The number of degrees of freedom        ....   60

    -----------------------------------------------------------------
                    Redundant Internal Coordinates


    -----------------------------------------------------------------
         Definition                    Initial Value    Approx d2E/dq
    -----------------------------------------------------------------
      1. B(C   1,C   0)                  1.5118         0.399444   
      2. B(C   3,C   2)                  1.5256         0.379678   
      3. B(C   4,C   2)                  1.5348         0.366993   
      4. B(N   6,C   2)                  1.4571         0.437404   
      5. B(N   6,C   1)                  1.3643         0.615026   
      6. B(N   7,C   5)                  1.4438         0.459291   
      7. B(N   7,C   4)                  1.3494         0.649682   
      8. B(O   8,C   4)                  1.1945         1.147754   
      9. B(O   9,C   1)                  1.1926         1.155795   
     10. B(H  10,N   6)                  0.9977         0.452710   
     11. B(H  11,N   7)                  0.9955         0.456352   
     12. B(H  12,C   5)                  1.0866         0.364678   
     13. B(H  13,C   5)                  1.0923         0.357115   
     14. B(H  14,C   5)                  1.0892         0.361204   
     15. B(H  15,C   3)                  1.0869         0.364212   
     16. B(H  16,C   3)                  1.0919         0.357640   
     17. B(H  17,C   3)                  1.0877         0.363158   
     18. B(H  18,C   0)                  1.0900         0.360035   
     19. B(H  19,C   0)                  1.0865         0.364707   
     20. B(H  20,C   0)                  1.0919         0.357593   
     21. B(H  21,C   2)                  1.0926         0.356650   
     22. A(C   1,C   0,H  19)          108.8778         0.328601   
     23. A(C   1,C   0,H  18)          112.2716         0.327902   
     24. A(H  18,C   0,H  20)          108.3394         0.290512   
     25. A(C   1,C   0,H  20)          108.8938         0.327535   
     26. A(H  18,C   0,H  19)          109.9018         0.291413   
     27. A(H  19,C   0,H  20)          108.4795         0.291101   
     28. A(N   6,C   1,O   9)          122.2068         0.479082   
     29. A(C   0,C   1,O   9)          122.4258         0.445714   
     30. A(C   0,C   1,N   6)          115.3673         0.398247   
     31. A(C   3,C   2,N   6)          113.5169         0.372020   
     32. A(N   6,C   2,H  21)          105.2610         0.330339   
     33. A(C   4,C   2,H  21)          103.9289         0.322864   
     34. A(C   4,C   2,N   6)          113.3325         0.369852   
     35. A(C   3,C   2,C   4)          111.6405         0.363254   
     36. A(C   3,C   2,H  21)          108.3604         0.324669   
     37. A(H  15,C   3,H  17)          108.2809         0.291746   
     38. A(C   2,C   3,H  17)          110.8564         0.325636   
     39. A(H  15,C   3,H  16)          108.9356         0.291045   
     40. A(C   2,C   3,H  16)          109.6449         0.324817   
     41. A(C   2,C   3,H  15)          110.0259         0.325791   
     42. A(H  16,C   3,H  17)          109.0568         0.290913   
     43. A(C   2,C   4,N   7)          116.1201         0.396161   
     44. A(N   7,C   4,O   8)          123.1530         0.483328   
     45. A(C   2,C   4,O   8)          120.4563         0.438385   
     46. A(H  13,C   5,H  14)          108.8318         0.290599   
     47. A(H  12,C   5,H  14)          108.8364         0.291558   
     48. A(N   7,C   5,H  14)          109.0812         0.333723   
     49. A(H  12,C   5,H  13)          108.2219         0.291036   
     50. A(N   7,C   5,H  13)          112.1164         0.333093   
     51. A(N   7,C   5,H  12)          109.6943         0.334253   
     52. A(C   2,N   6,H  10)          116.6149         0.340756   
     53. A(C   1,N   6,H  10)          117.2951         0.360945   
     54. A(C   1,N   6,C   2)          122.7288         0.402070   
     55. A(C   5,N   7,H  11)          118.3799         0.344016   
     56. A(C   4,N   7,H  11)          117.5391         0.364840   
     57. A(C   4,N   7,C   5)          121.3294         0.409501   
     58. D(N   6,C   1,C   0,H  20)     85.2122         0.011843   
     59. D(O   9,C   1,C   0,H  19)     23.2213         0.011843   
     60. D(O   9,C   1,C   0,H  20)    -94.8840         0.011843   
     61. D(N   6,C   1,C   0,H  18)    -34.7578         0.011843   
     62. D(O   9,C   1,C   0,H  18)    145.1461         0.011843   
     63. D(N   6,C   1,C   0,H  19)   -156.6826         0.011843   
     64. D(H  17,C   3,C   2,C   4)     64.7073         0.011490   
     65. D(H  16,C   3,C   2,H  21)    -60.9667         0.011490   
     66. D(H  15,C   3,C   2,C   4)    -55.0374         0.011490   
     67. D(H  15,C   3,C   2,N   6)    175.3684         0.011490   
     68. D(H  16,C   3,C   2,N   6)     55.5770         0.011490   
     69. D(H  17,C   3,C   2,N   6)    -64.8869         0.011490   
     70. D(H  15,C   3,C   2,H  21)     58.8247         0.011490   
     71. D(H  16,C   3,C   2,C   4)   -174.8288         0.011490   
     72. D(H  17,C   3,C   2,H  21)    178.5694         0.011490   
     73. D(O   8,C   4,C   2,H  21)    -92.5894         0.010098   
     74. D(O   8,C   4,C   2,N   6)    153.6873         0.010098   
     75. D(O   8,C   4,C   2,C   3)     23.9967         0.010098   
     76. D(N   7,C   4,C   2,H  21)     81.6207         0.010098   
     77. D(N   7,C   4,C   2,N   6)    -32.1025         0.010098   
     78. D(N   7,C   4,C   2,C   3)   -161.7931         0.010098   
     79. D(H  10,N   6,C   2,C   4)    135.9280         0.016313   
     80. D(H  10,N   6,C   2,C   3)    -95.3377         0.016313   
     81. D(C   1,N   6,C   2,H  21)   -178.2776         0.016313   
     82. D(C   1,N   6,C   2,C   4)    -65.3589         0.016313   
     83. D(C   1,N   6,C   2,C   3)     63.3754         0.016313   
     84. D(H  10,N   6,C   1,O   9)    171.6299         0.030591   
     85. D(H  10,N   6,C   1,C   0)     -8.4660         0.030591   
     86. D(C   2,N   6,C   1,O   9)     13.0520         0.030591   
     87. D(H  10,N   6,C   2,H  21)     23.0093         0.016313   
     88. D(C   2,N   6,C   1,C   0)   -167.0438         0.030591   
     89. D(H  11,N   7,C   5,H  14)    -35.7534         0.018006   
     90. D(H  11,N   7,C   5,H  13)     84.8613         0.018006   
     91. D(C   4,N   7,C   5,H  14)    163.5000         0.018006   
     92. D(C   4,N   7,C   5,H  13)    -75.8854         0.018006   
     93. D(C   4,N   7,C   5,H  12)     44.3775         0.018006   
     94. D(H  11,N   7,C   4,O   8)   -170.1783         0.034443   
     95. D(H  11,N   7,C   5,H  12)   -154.8759         0.018006   
     96. D(H  11,N   7,C   4,C   2)     15.7837         0.034443   
     97. D(C   5,N   7,C   4,O   8)     -9.2764         0.034443   
     98. D(C   5,N   7,C   4,C   2)    176.6856         0.034443   
    -----------------------------------------------------------------

Number of atoms                         .... 22
Number of degrees of freedom            .... 98

         *************************************************************
         *                GEOMETRY OPTIMIZATION CYCLE   1            *
         *************************************************************
---------------------------------
CARTESIAN COORDINATES (ANGSTROEM)
---------------------------------
  C      1.383287    2.308612    4.053109
  C      1.361836    1.421572    2.829115
  C      0.812708    1.355105    0.415015
  C     -0.508504    0.595202    0.481091
  C      1.953785    0.463308   -0.093286
  C      4.361210    0.111326   -0.201094
  N      1.138310    2.063258    1.646084
  N      3.205705    0.896495    0.163310
  O      1.719303   -0.494692   -0.767070
  O      1.530176    0.242567    2.890797
  H      0.880487    3.026094    1.689431
  H      3.314709    1.607691    0.851332
  H      4.235061   -0.281048   -1.206452
  H      4.516804   -0.730618    0.477114
  H      5.244988    0.747553   -0.180237
  H     -0.735050    0.157602   -0.487699
  H     -1.312600    1.280315    0.757176
  H     -0.457781   -0.206688    1.214226
  H      1.810647    3.289556    3.844978
  H      1.953770    1.814979    4.835058
  H      0.359701    2.447832    4.406859
  H      0.725398    2.131440   -0.348857

----------------------------
CARTESIAN COORDINATES (A.U.)
----------------------------
  NO LB      ZA    FRAG     MASS         X           Y           Z
   0 C     6.0000    0    12.011    2.614034    4.362644    7.659266
   1 C     6.0000    0    12.011    2.573496    2.686381    5.346253
   2 C     6.0000    0    12.011    1.535795    2.560778    0.784264
   3 C     6.0000    0    12.011   -0.960934    1.124770    0.909130
   4 C     6.0000    0    12.011    3.692119    0.875526   -0.176285
   5 C     6.0000    0    12.011    8.241492    0.210375   -0.380012
   6 N     7.0000    0    14.007    2.151094    3.898993    3.110648
   7 N     7.0000    0    14.007    6.057904    1.694131    0.308610
   8 O     8.0000    0    15.999    3.249012   -0.934833   -1.449552
   9 O     8.0000    0    15.999    2.891614    0.458385    5.462814
  10 H     1.0000    0     1.008    1.663880    5.718488    3.192562
  11 H     1.0000    0     1.008    6.263892    3.038096    1.608785
  12 H     1.0000    0     1.008    8.003106   -0.531104   -2.279863
  13 H     1.0000    0     1.008    8.535522   -1.380668    0.901615
  14 H     1.0000    0     1.008    9.911591    1.412671   -0.340599
  15 H     1.0000    0     1.008   -1.389043    0.297824   -0.921617
  16 H     1.0000    0     1.008   -2.480454    2.419444    1.430856
  17 H     1.0000    0     1.008   -0.865081   -0.390584    2.294554
  18 H     1.0000    0     1.008    3.421627    6.216360    7.265955
  19 H     1.0000    0     1.008    3.692090    3.429813    9.136935
  20 H     1.0000    0     1.008    0.679737    4.625731    8.327757
  21 H     1.0000    0     1.008    1.370803    4.027839   -0.659244

--------------------------------
INTERNAL COORDINATES (ANGSTROEM)
--------------------------------
 C      0   0   0     0.000000000000     0.00000000     0.00000000
 C      1   0   0     1.511774256299     0.00000000     0.00000000
 C      2   1   0     2.476659086537   143.90901413     0.00000000
 C      3   2   1     1.525588436074    99.39082433   256.30108273
 C      3   2   1     1.534838509796    99.99514580   142.17797046
 C      5   3   2     2.435407166865   146.46459769   305.61375981
 N      2   1   3     1.364290372192   115.36733143    10.85764507
 N      5   3   2     1.349368249195   116.12011593   302.57600187
 O      5   3   2     1.194458785727   120.45625984   128.36586199
 O      2   1   3     1.192558522985   122.42579700   190.76151923
 H      7   2   1     0.997699084950   117.29508536   351.53404585
 H      8   5   3     0.995518284985   117.53907881    15.78373255
 H      6   5   3     1.086561013814    88.76142282   215.80341923
 H      6   5   3     1.092265670232   102.98715689   107.38255988
 H      6   5   3     1.089166686546   135.79343851   331.96721605
 H      4   3   2     1.086909089295   110.02593946   200.19621775
 H      4   3   2     1.091865924282   109.64491908    80.40483114
 H      4   3   2     1.087698487776   110.85644291   319.94096801
 H      1   2   3     1.090048782991   112.27161550   314.38459555
 H      1   2   3     1.086539279817   108.87779613   192.45979580
 H      1   2   3     1.091901854173   108.89378126    74.35451554
 H      3   2   1     1.092620626193   132.85214783    22.38218098

---------------------------
INTERNAL COORDINATES (A.U.)
---------------------------
 C      0   0   0     0.000000000000     0.00000000     0.00000000
 C      1   0   0     2.856839320717     0.00000000     0.00000000
 C      2   1   0     4.680207400643   143.90901413     0.00000000
 C      3   2   1     2.882944337256    99.39082433   256.30108273
 C      3   2   1     2.900424443310    99.99514580   142.17797046
 C      5   3   2     4.602252569963   146.46459769   305.61375981
 N      2   1   3     2.578135170588   115.36733143    10.85764507
 N      5   3   2     2.549936444787   116.12011593   302.57600187
 O      5   3   2     2.257199983279   120.45625984   128.36586199
 O      2   1   3     2.253609007115   122.42579700   190.76151923
 H      7   2   1     1.885378034620   117.29508536   351.53404585
 H      8   5   3     1.881256919933   117.53907881    15.78373255
 H      6   5   3     2.053302743904    88.76142282   215.80341923
 H      6   5   3     2.064082982222   102.98715689   107.38255988
 H      6   5   3     2.058226751763   135.79343851   331.96721605
 H      4   3   2     2.053960511237   110.02593946   200.19621775
 H      4   3   2     2.063327571854   109.64491908    80.40483114
 H      4   3   2     2.055452258178   110.85644291   319.94096801
 H      1   2   3     2.059893672467   112.27161550   314.38459555
 H      1   2   3     2.053261672602   108.87779613   192.45979580
 H      1   2   3     2.063395469508   108.89378126    74.35451554
 H      3   2   1     2.064753751779   132.85214783    22.38218098

---------------------
BASIS SET INFORMATION
---------------------
There are 4 groups of distinct atoms

 Group   1 Type C   : 7s4p1d contracted to 3s2p1d pattern {511/31/1}
 Group   2 Type N   : 7s4p1d contracted to 3s2p1d pattern {511/31/1}
 Group   3 Type O   : 7s4p1d contracted to 3s2p1d pattern {511/31/1}
 Group   4 Type H   : 4s1p contracted to 2s1p pattern {31/1}

Atom   0C    basis set group =>   1
Atom   1C    basis set group =>   1
Atom   2C    basis set group =>   1
Atom   3C    basis set group =>   1
Atom   4C    basis set group =>   1
Atom   5C    basis set group =>   1
Atom   6N    basis set group =>   2
Atom   7N    basis set group =>   2
Atom   8O    basis set group =>   3
Atom   9O    basis set group =>   3
Atom  10H    basis set group =>   4
Atom  11H    basis set group =>   4
Atom  12H    basis set group =>   4
Atom  13H    basis set group =>   4
Atom  14H    basis set group =>   4
Atom  15H    basis set group =>   4
Atom  16H    basis set group =>   4
Atom  17H    basis set group =>   4
Atom  18H    basis set group =>   4
Atom  19H    basis set group =>   4
Atom  20H    basis set group =>   4
Atom  21H    basis set group =>   4


           ************************************************************
           *        Program running with 8 parallel MPI-processes     *
           *              working on a common directory               *
           ************************************************************
------------------------------------------------------------------------------
                           ORCA GTO INTEGRAL CALCULATION
------------------------------------------------------------------------------
------------------------------------------------------------------------------
                   ___                                                        
                  /   \      - P O W E R E D   B Y -                         
                 /     \                                                     
                 |  |  |   _    _      __       _____    __    __             
                 |  |  |  | |  | |    /  \     |  _  \  |  |  /  |          
                  \  \/   | |  | |   /    \    | | | |  |  | /  /          
                 / \  \   | |__| |  /  /\  \   | |_| |  |  |/  /          
                |  |  |   |  __  | /  /__\  \  |    /   |      \           
                |  |  |   | |  | | |   __   |  |    \   |  |\   \          
                \     /   | |  | | |  |  |  |  | |\  \  |  | \   \       
                 \___/    |_|  |_| |__|  |__|  |_| \__\ |__|  \__/        
                                                                              
                      - O R C A' S   B I G   F R I E N D -                    
                                      &                                       
                       - I N T E G R A L  F E E D E R -                       
                                                                              
 v1 FN, 2020, v2 2021                                                         
------------------------------------------------------------------------------


Reading SHARK input file freq.SHARKINP.tmp ... ok
----------------------
SHARK INTEGRAL PACKAGE
----------------------

Number of atoms                             ...     22
Number of basis functions                   ...    200
Number of shells                            ...     96
Maximum angular momentum                    ...      2
Integral batch strategy                     ... SHARK/LIBINT Hybrid
RI-J (if used) integral strategy            ... SPLIT-RIJ (Revised 2003 algorithm where possible)
Printlevel                                  ...      1
Contraction scheme used                     ... SEGMENTED contraction
Coulomb Range Separation                    ... NOT USED
Exchange Range Separation                   ... NOT USED
Finite Nucleus Model                        ... NOT USED
Auxiliary Coulomb fitting basis             ... NOT available
Auxiliary J/K fitting basis                 ... NOT available
Auxiliary Correlation fitting basis         ... NOT available
Auxiliary 'external' fitting basis          ... NOT available
Integral threshold                          ...     2.500000e-11
Primitive cut-off                           ...     2.500000e-12
Primitive pair pre-selection threshold      ...     2.500000e-12

Calculating pre-screening integrals         ... done (  0.0 sec) Dimension = 96
Organizing shell pair data                  ... done (  0.1 sec)
Shell pair information
Total number of shell pairs                 ...      4656
Shell pairs after pre-screening             ...      4219
Total number of primitive shell pairs       ...     16456
Primitive shell pairs kept                  ...     10565
          la=0 lb=0:   1366 shell pairs
          la=1 lb=0:   1562 shell pairs
          la=1 lb=1:    468 shell pairs
          la=2 lb=0:    489 shell pairs
          la=2 lb=1:    282 shell pairs
          la=2 lb=2:     52 shell pairs

Calculating one electron integrals          ... done (  0.0 sec)
Calculating Nuclear repulsion               ... done (  0.0 sec) ENN=    569.979641925466 Eh

SHARK setup successfully completed in   0.3 seconds

Maximum memory used throughout the entire GTOINT-calculation: 10.6 MB


           ************************************************************
           *        Program running with 8 parallel MPI-processes     *
           *              working on a common directory               *
           ************************************************************
-------------------------------------------------------------------------------
                                 ORCA SCF
-------------------------------------------------------------------------------

------------
SCF SETTINGS
------------
Hamiltonian:
 Ab initio Hamiltonian  Method          .... Hartree-Fock(GTOs)


General Settings:
 Integral files         IntName         .... freq
 Hartree-Fock type      HFTyp           .... RHF
 Total Charge           Charge          ....    0
 Multiplicity           Mult            ....    1
 Number of Electrons    NEL             ....   78
 Basis Dimension        Dim             ....  200
 Nuclear Repulsion      ENuc            ....    569.9796419255 Eh

Convergence Acceleration:
 DIIS                   CNVDIIS         .... on
   Start iteration      DIISMaxIt       ....    12
   Startup error        DIISStart       ....  0.200000
   # of expansion vecs  DIISMaxEq       ....     5
   Bias factor          DIISBfac        ....   1.050
   Max. coefficient     DIISMaxC        ....  10.000
 Trust-Rad. Augm. Hess. CNVTRAH         .... auto
   Auto Start mean grad. ratio tolernc. ....  1.125000
   Auto Start start iteration           ....    20
   Auto Start num. interpolation iter.  ....    10
   Max. Number of Micro iterations      ....    16
   Max. Number of Macro iterations      .... Maxiter - #DIIS iter
   Number of Davidson start vectors     ....     2
   Converg. threshold I  (grad. norm)   ....   1.000e-05
   Converg. threshold II (energy diff.) ....   1.000e-08
   Grad. Scal. Fac. for Micro threshold ....   0.100
   Minimum threshold for Micro iter.    ....   0.010
   NR start threshold (gradient norm)   ....   0.001
   Initial trust radius                 ....   0.400
   Minimum AH scaling param. (alpha)    ....   1.000
   Maximum AH scaling param. (alpha)    .... 1000.000
   Orbital update algorithm             .... Taylor
   White noise on init. David. guess    .... on
   Maximum white noise                  ....   0.010
   Quad. conv. algorithm                .... NR
 SOSCF                  CNVSOSCF        .... on
   Start iteration      SOSCFMaxIt      ....   150
   Startup grad/error   SOSCFStart      ....  0.003300
 Level Shifting         CNVShift        .... on
   Level shift para.    LevelShift      ....    0.2500
   Turn off err/grad.   ShiftErr        ....    0.0010
 Zerner damping         CNVZerner       .... off
 Static damping         CNVDamp         .... on
   Fraction old density DampFac         ....    0.7000
   Max. Damping (<1)    DampMax         ....    0.9800
   Min. Damping (>=0)   DampMin         ....    0.0000
   Turn off err/grad.   DampErr         ....    0.1000
 Fernandez-Rico         CNVRico         .... off

SCF Procedure:
 Maximum # iterations   MaxIter         ....   125
 SCF integral mode      SCFMode         .... Direct
   Integral package                     .... SHARK and LIBINT hybrid scheme
 Reset frequency        DirectResetFreq ....    20
 Integral Threshold     Thresh          ....  2.500e-11 Eh
 Primitive CutOff       TCut            ....  2.500e-12 Eh

Convergence Tolerance:
 Convergence Check Mode ConvCheckMode   .... Total+1el-Energy
 Convergence forced     ConvForced      .... 0
 Energy Change          TolE            ....  1.000e-08 Eh
 1-El. energy change                    ....  1.000e-05 Eh
 Orbital Gradient       TolG            ....  1.000e-05
 Orbital Rotation angle TolX            ....  1.000e-05
 DIIS Error             TolErr          ....  5.000e-07


Diagonalization of the overlap matrix:
Smallest eigenvalue                        ... 1.305e-03
Time for diagonalization                   ...    0.008 sec
Threshold for overlap eigenvalues          ... 1.000e-08
Number of eigenvalues below threshold      ... 0
Time for construction of square roots      ...    0.008 sec
Total time needed                          ...    0.017 sec

Time for model grid setup =    0.168 sec

------------------------------
INITIAL GUESS: MODEL POTENTIAL
------------------------------
Loading Hartree-Fock densities                     ... done
Calculating cut-offs                               ... done
Initializing the effective Hamiltonian             ... done
Setting up the integral package (SHARK)            ... done
Starting the Coulomb interaction                   ... done (   0.1 sec)
Reading the grid                                   ... done
Mapping shells                                     ... done
Starting the XC term evaluation                    ... done (   0.0 sec)
Transforming the Hamiltonian                       ... done (   0.0 sec)
Diagonalizing the Hamiltonian                      ... done (   0.0 sec)
Back transforming the eigenvectors                 ... done (   0.0 sec)
Now organizing SCF variables                       ... done
                      ------------------
                      INITIAL GUESS DONE (   0.3 sec)
                      ------------------
--------------
SCF ITERATIONS
--------------
ITER       Energy         Delta-E        Max-DP      RMS-DP      [F,P]     Damp
               ***  Starting incremental Fock matrix formation  ***
  0   -492.0501786308   0.000000000000 0.06604692  0.00212403  0.2646857 0.7000
  1   -492.2064481128  -0.156269481967 0.04742479  0.00158988  0.1619702 0.7000
                               ***Turning on DIIS***
  2   -492.2996423036  -0.093194190777 0.09547760  0.00335019  0.0918108 0.0000
  3   -491.7492200239   0.550422279672 0.03484581  0.00108558  0.0538087 0.0000
  4   -492.5031424475  -0.753922423574 0.00981938  0.00035097  0.0092039 0.0000
  5   -492.4926439688   0.010498478678 0.00618404  0.00018310  0.0061090 0.0000
                      *** Initiating the SOSCF procedure ***
                           *** Shutting down DIIS ***
                      *** Re-Reading the Fockian *** 
                      *** Removing any level shift *** 
ITER      Energy       Delta-E        Grad      Rot      Max-DP    RMS-DP
  6   -492.49334488  -0.0007009139  0.001782  0.001782  0.003199  0.000101
               *** Restarting incremental Fock matrix formation ***
  7   -492.49289064   0.0004542410  0.000692  0.001205  0.001534  0.000049
  8   -492.49290583  -0.0000151870  0.000350  0.001325  0.001462  0.000048
  9   -492.49291129  -0.0000054646  0.000069  0.000076  0.000413  0.000007
 10   -492.49291152  -0.0000002302  0.000038  0.000033  0.000093  0.000003
 11   -492.49291160  -0.0000000800  0.000009  0.000013  0.000028  0.000001
                  ***Gradient check signals convergence***
              ***Rediagonalizing the Fockian in SOSCF/NRSCF***

               *****************************************************
               *                     SUCCESS                       *
               *           SCF CONVERGED AFTER  12 CYCLES          *
               *****************************************************


----------------
TOTAL SCF ENERGY
----------------

Total Energy       :         -492.49291161 Eh          -13401.41344 eV

Components:
Nuclear Repulsion  :          569.97964193 Eh           15509.93457 eV
Electronic Energy  :        -1062.47255353 Eh          -28911.34801 eV
One Electron Energy:        -1802.73538204 Eh          -49054.92365 eV
Two Electron Energy:          740.26282851 Eh           20143.57564 eV

Virial components:
Potential Energy   :         -983.08696487 Eh          -26751.15632 eV
Kinetic Energy     :          490.59405326 Eh           13349.74288 eV
Virial Ratio       :            2.00387053


---------------
SCF CONVERGENCE
---------------

  Last Energy change         ...   -6.1377e-09  Tolerance :   1.0000e-08
  Last MAX-Density change    ...    2.3865e-05  Tolerance :   1.0000e-07
  Last RMS-Density change    ...    4.1502e-07  Tolerance :   5.0000e-09
  Last Orbital Gradient      ...    2.4724e-06  Tolerance :   1.0000e-05
  Last Orbital Rotation      ...    7.4368e-06  Tolerance :   1.0000e-05

             **** THE GBW FILE WAS UPDATED (freq.gbw) ****
             **** DENSITY freq.scfp WAS UPDATED ****
             **** ENERGY FILE WAS UPDATED (freq.en.tmp) ****
             **** THE GBW FILE WAS UPDATED (freq.gbw) ****
             **** DENSITY freq.scfp WAS UPDATED ****
----------------
ORBITAL ENERGIES
----------------

  NO   OCC          E(Eh)            E(eV) 
   0   2.0000     -20.523753      -558.4797 
   1   2.0000     -20.501987      -557.8874 
   2   2.0000     -15.594289      -424.3422 
   3   2.0000     -15.568773      -423.6479 
   4   2.0000     -11.358716      -309.0864 
   5   2.0000     -11.336800      -308.4900 
   6   2.0000     -11.284121      -307.0565 
   7   2.0000     -11.256243      -306.2980 
   8   2.0000     -11.250858      -306.1514 
   9   2.0000     -11.217911      -305.2549 
  10   2.0000      -1.395368       -37.9699 
  11   2.0000      -1.372567       -37.3494 
  12   2.0000      -1.240105       -33.7450 
  13   2.0000      -1.207378       -32.8544 
  14   2.0000      -1.046363       -28.4730 
  15   2.0000      -0.987600       -26.8740 
  16   2.0000      -0.945224       -25.7209 
  17   2.0000      -0.868130       -23.6230 
  18   2.0000      -0.803901       -21.8753 
  19   2.0000      -0.771108       -20.9829 
  20   2.0000      -0.721098       -19.6221 
  21   2.0000      -0.698970       -19.0199 
  22   2.0000      -0.655392       -17.8341 
  23   2.0000      -0.642998       -17.4969 
  24   2.0000      -0.628218       -17.0947 
  25   2.0000      -0.616970       -16.7886 
  26   2.0000      -0.604460       -16.4482 
  27   2.0000      -0.594560       -16.1788 
  28   2.0000      -0.577449       -15.7132 
  29   2.0000      -0.562584       -15.3087 
  30   2.0000      -0.543624       -14.7927 
  31   2.0000      -0.535209       -14.5638 
  32   2.0000      -0.524536       -14.2733 
  33   2.0000      -0.517791       -14.0898 
  34   2.0000      -0.505445       -13.7539 
  35   2.0000      -0.436337       -11.8733 
  36   2.0000      -0.428155       -11.6507 
  37   2.0000      -0.395967       -10.7748 
  38   2.0000      -0.383815       -10.4441 
  39   0.0000       0.143686         3.9099 
  40   0.0000       0.178791         4.8651 
  41   0.0000       0.183971         5.0061 
  42   0.0000       0.195258         5.3132 
  43   0.0000       0.218404         5.9431 
  44   0.0000       0.226782         6.1711 
  45   0.0000       0.243185         6.6174 
  46   0.0000       0.244632         6.6568 
  47   0.0000       0.250732         6.8228 
  48   0.0000       0.261900         7.1267 
  49   0.0000       0.274314         7.4645 
  50   0.0000       0.282868         7.6972 
  51   0.0000       0.293728         7.9927 
  52   0.0000       0.298778         8.1302 
  53   0.0000       0.352933         9.6038 
  54   0.0000       0.372183        10.1276 
  55   0.0000       0.399982        10.8841 
  56   0.0000       0.421584        11.4719 
  57   0.0000       0.451747        12.2927 
  58   0.0000       0.455159        12.3855 
  59   0.0000       0.482938        13.1414 
  60   0.0000       0.522657        14.2222 
  61   0.0000       0.555591        15.1184 
  62   0.0000       0.612387        16.6639 
  63   0.0000       0.626593        17.0505 
  64   0.0000       0.638778        17.3820 
  65   0.0000       0.641858        17.4658 
  66   0.0000       0.652661        17.7598 
  67   0.0000       0.658328        17.9140 
  68   0.0000       0.685817        18.6620 
  69   0.0000       0.709996        19.3200 
  70   0.0000       0.733787        19.9674 
  71   0.0000       0.752121        20.4663 
  72   0.0000       0.806166        21.9369 
  73   0.0000       0.818097        22.2615 
  74   0.0000       0.827455        22.5162 
  75   0.0000       0.843266        22.9464 
  76   0.0000       0.846715        23.0403 
  77   0.0000       0.859165        23.3791 
  78   0.0000       0.860507        23.4156 
  79   0.0000       0.869398        23.6575 
  80   0.0000       0.890349        24.2276 
  81   0.0000       0.893481        24.3129 
  82   0.0000       0.896912        24.4062 
  83   0.0000       0.908607        24.7244 
  84   0.0000       0.909897        24.7595 
  85   0.0000       0.916726        24.9454 
  86   0.0000       0.931410        25.3449 
  87   0.0000       0.939188        25.5566 
  88   0.0000       0.951583        25.8939 
  89   0.0000       0.959807        26.1177 
  90   0.0000       0.968637        26.3580 
  91   0.0000       0.981558        26.7096 
  92   0.0000       0.995414        27.0866 
  93   0.0000       1.034501        28.1502 
  94   0.0000       1.048271        28.5249 
  95   0.0000       1.086468        29.5643 
  96   0.0000       1.108722        30.1699 
  97   0.0000       1.131111        30.7791 
  98   0.0000       1.146409        31.1954 
  99   0.0000       1.181866        32.1602 
 100   0.0000       1.217583        33.1321 
 101   0.0000       1.245123        33.8815 
 102   0.0000       1.302293        35.4372 
 103   0.0000       1.314535        35.7703 
 104   0.0000       1.350449        36.7476 
 105   0.0000       1.355753        36.8919 
 106   0.0000       1.383187        37.6384 
 107   0.0000       1.422061        38.6963 
 108   0.0000       1.458003        39.6743 
 109   0.0000       1.472259        40.0622 
 110   0.0000       1.482104        40.3301 
 111   0.0000       1.494365        40.6637 
 112   0.0000       1.548942        42.1489 
 113   0.0000       1.562020        42.5047 
 114   0.0000       1.573403        42.8145 
 115   0.0000       1.652588        44.9692 
 116   0.0000       1.668831        45.4112 
 117   0.0000       1.691919        46.0395 
 118   0.0000       1.710102        46.5343 
 119   0.0000       1.755322        47.7648 
 120   0.0000       1.775571        48.3157 
 121   0.0000       1.794142        48.8211 
 122   0.0000       1.813724        49.3539 
 123   0.0000       1.832307        49.8596 
 124   0.0000       1.866532        50.7909 
 125   0.0000       1.886874        51.3445 
 126   0.0000       1.890372        51.4396 
 127   0.0000       1.930692        52.5368 
 128   0.0000       1.966092        53.5001 
 129   0.0000       1.992519        54.2192 
 130   0.0000       2.017991        54.9123 
 131   0.0000       2.045413        55.6585 
 132   0.0000       2.053085        55.8673 
 133   0.0000       2.064089        56.1667 
 134   0.0000       2.068252        56.2800 
 135   0.0000       2.083208        56.6870 
 136   0.0000       2.092634        56.9435 
 137   0.0000       2.097089        57.0647 
 138   0.0000       2.110073        57.4180 
 139   0.0000       2.118334        57.6428 
 140   0.0000       2.156061        58.6694 
 141   0.0000       2.183219        59.4084 
 142   0.0000       2.202712        59.9388 
 143   0.0000       2.206490        60.0417 
 144   0.0000       2.222406        60.4747 
 145   0.0000       2.235056        60.8190 
 146   0.0000       2.273862        61.8749 
 147   0.0000       2.295381        62.4605 
 148   0.0000       2.308016        62.8043 
 149   0.0000       2.317034        63.0497 
 150   0.0000       2.340514        63.6886 
 151   0.0000       2.407919        65.5228 
 152   0.0000       2.419150        65.8284 
 153   0.0000       2.425169        65.9922 
 154   0.0000       2.456809        66.8532 
 155   0.0000       2.494229        67.8714 
 156   0.0000       2.505001        68.1645 
 157   0.0000       2.589540        70.4650 
 158   0.0000       2.596947        70.6665 
 159   0.0000       2.638228        71.7898 
 160   0.0000       2.656131        72.2770 
 161   0.0000       2.677430        72.8566 
 162   0.0000       2.718502        73.9742 
 163   0.0000       2.738446        74.5169 
 164   0.0000       2.774498        75.4979 
 165   0.0000       2.782550        75.7170 
 166   0.0000       2.789523        75.9068 
 167   0.0000       2.842448        77.3469 
 168   0.0000       2.896912        78.8290 
 169   0.0000       2.916901        79.3729 
 170   0.0000       2.927735        79.6677 
 171   0.0000       2.982344        81.1537 
 172   0.0000       2.986530        81.2676 
 173   0.0000       3.008274        81.8593 
 174   0.0000       3.047397        82.9239 
 175   0.0000       3.064390        83.3863 
 176   0.0000       3.115808        84.7854 
 177   0.0000       3.133367        85.2633 
 178   0.0000       3.148682        85.6800 
 179   0.0000       3.178207        86.4834 
 180   0.0000       3.211969        87.4021 
 181   0.0000       3.221430        87.6596 
 182   0.0000       3.267757        88.9202 
 183   0.0000       3.295804        89.6834 
 184   0.0000       3.297903        89.7405 
 185   0.0000       3.308135        90.0189 
 186   0.0000       3.352730        91.2324 
 187   0.0000       3.366984        91.6203 
 188   0.0000       3.382072        92.0309 
 189   0.0000       3.401307        92.5543 
 190   0.0000       3.519114        95.7600 
 191   0.0000       3.558335        96.8272 
 192   0.0000       3.607484        98.1646 
 193   0.0000       3.632006        98.8319 
 194   0.0000       3.647987        99.2668 
 195   0.0000       3.719804       101.2210 
 196   0.0000       3.971502       108.0701 
 197   0.0000       4.012960       109.1982 
 198   0.0000       4.106981       111.7566 
 199   0.0000       4.128481       112.3417 

                    ********************************
                    * MULLIKEN POPULATION ANALYSIS *
                    ********************************

-----------------------
MULLIKEN ATOMIC CHARGES
-----------------------
   0 C :   -0.029481
   1 C :    0.318886
   2 C :    0.032422
   3 C :    0.033274
   4 C :    0.418703
   5 C :    0.168176
   6 N :   -0.467171
   7 N :   -0.440494
   8 O :   -0.422918
   9 O :   -0.408137
  10 H :    0.149696
  11 H :    0.150199
  12 H :    0.054966
  13 H :    0.041656
  14 H :    0.023022
  15 H :    0.058732
  16 H :    0.014670
  17 H :    0.064790
  18 H :    0.040370
  19 H :    0.071416
  20 H :    0.069246
  21 H :    0.057980
Sum of atomic charges:   -0.0000000

--------------------------------
MULLIKEN REDUCED ORBITAL CHARGES
--------------------------------
  0 C s       :     3.018867  s :     3.018867
      pz      :     0.959202  p :     2.977157
      px      :     1.046192
      py      :     0.971763
      dz2     :     0.006081  d :     0.033456
      dxz     :     0.005191
      dyz     :     0.010133
      dx2y2   :     0.007488
      dxy     :     0.004563
  1 C s       :     3.070666  s :     3.070666
      pz      :     0.866766  p :     2.465165
      px      :     0.695576
      py      :     0.902823
      dz2     :     0.021194  d :     0.145283
      dxz     :     0.013407
      dyz     :     0.060106
      dx2y2   :     0.018810
      dxy     :     0.031767
  2 C s       :     3.071833  s :     3.071833
      pz      :     0.812600  p :     2.829077
      px      :     0.989893
      py      :     1.026583
      dz2     :     0.012830  d :     0.066668
      dxz     :     0.010830
      dyz     :     0.018460
      dx2y2   :     0.008473
      dxy     :     0.016076
  3 C s       :     3.019069  s :     3.019069
      pz      :     1.043431  p :     2.911029
      px      :     0.883139
      py      :     0.984460
      dz2     :     0.008039  d :     0.036627
      dxz     :     0.002577
      dyz     :     0.009618
      dx2y2   :     0.004982
      dxy     :     0.011412
  4 C s       :     3.026722  s :     3.026722
      pz      :     0.754959  p :     2.410222
      px      :     0.815921
      py      :     0.839343
      dz2     :     0.023337  d :     0.144354
      dxz     :     0.027904
      dyz     :     0.018894
      dx2y2   :     0.030057
      dxy     :     0.044161
  5 C s       :     2.989768  s :     2.989768
      pz      :     1.031190  p :     2.789494
      px      :     0.826108
      py      :     0.932196
      dz2     :     0.010695  d :     0.052562
      dxz     :     0.006162
      dyz     :     0.010912
      dx2y2   :     0.007469
      dxy     :     0.017324
  6 N s       :     3.425784  s :     3.425784
      pz      :     1.178960  p :     4.017807
      px      :     1.711625
      py      :     1.127222
      dz2     :     0.007832  d :     0.023580
      dxz     :     0.003262
      dyz     :     0.007822
      dx2y2   :     0.002435
      dxy     :     0.002229
  7 N s       :     3.408440  s :     3.408440
      pz      :     1.499502  p :     4.007465
      px      :     1.143173
      py      :     1.364791
      dz2     :     0.003317  d :     0.024590
      dxz     :     0.003791
      dyz     :     0.003671
      dx2y2   :     0.006547
      dxy     :     0.007263
  8 O s       :     3.771969  s :     3.771969
      pz      :     1.440431  p :     4.629530
      px      :     1.798059
      py      :     1.391040
      dz2     :     0.004513  d :     0.021420
      dxz     :     0.001694
      dyz     :     0.007023
      dx2y2   :     0.004935
      dxy     :     0.003255
  9 O s       :     3.778155  s :     3.778155
      pz      :     1.814325  p :     4.608337
      px      :     1.462595
      py      :     1.331417
      dz2     :     0.002806  d :     0.021645
      dxz     :     0.000128
      dyz     :     0.004085
      dx2y2   :     0.007446
      dxy     :     0.007179
 10 H s       :     0.803897  s :     0.803897
      pz      :     0.004624  p :     0.046407
      px      :     0.013035
      py      :     0.028748
 11 H s       :     0.801646  s :     0.801646
      pz      :     0.021559  p :     0.048155
      px      :     0.005028
      py      :     0.021567
 12 H s       :     0.919351  s :     0.919351
      pz      :     0.016814  p :     0.025683
      px      :     0.003167
      py      :     0.005702
 13 H s       :     0.933534  s :     0.933534
      pz      :     0.009455  p :     0.024810
      px      :     0.002883
      py      :     0.012473
 14 H s       :     0.951947  s :     0.951947
      pz      :     0.004399  p :     0.025031
      px      :     0.012615
      py      :     0.008017
 15 H s       :     0.914858  s :     0.914858
      pz      :     0.015595  p :     0.026410
      px      :     0.004065
      py      :     0.006751
 16 H s       :     0.960159  s :     0.960159
      pz      :     0.005142  p :     0.025171
      px      :     0.011095
      py      :     0.008934
 17 H s       :     0.908861  s :     0.908861
      pz      :     0.010894  p :     0.026349
      px      :     0.003354
      py      :     0.012101
 18 H s       :     0.933595  s :     0.933595
      pz      :     0.003882  p :     0.026036
      px      :     0.006564
      py      :     0.015590
 19 H s       :     0.902475  s :     0.902475
      pz      :     0.011084  p :     0.026109
      px      :     0.008058
      py      :     0.006967
 20 H s       :     0.903947  s :     0.903947
      pz      :     0.005623  p :     0.026808
      px      :     0.016645
      py      :     0.004541
 21 H s       :     0.918538  s :     0.918538
      pz      :     0.010035  p :     0.023483
      px      :     0.003252
      py      :     0.010196


                     *******************************
                     * LOEWDIN POPULATION ANALYSIS *
                     *******************************

----------------------
LOEWDIN ATOMIC CHARGES
----------------------
   0 C :   -0.052596
   1 C :    0.145586
   2 C :    0.033365
   3 C :   -0.024527
   4 C :    0.153296
   5 C :    0.073005
   6 N :   -0.088209
   7 N :   -0.081690
   8 O :   -0.282132
   9 O :   -0.271609
  10 H :    0.069655
  11 H :    0.063038
  12 H :    0.025791
  13 H :    0.014730
  14 H :    0.012855
  15 H :    0.030485
  16 H :    0.009721
  17 H :    0.030609
  18 H :    0.023512
  19 H :    0.041024
  20 H :    0.041959
  21 H :    0.032131

-------------------------------
LOEWDIN REDUCED ORBITAL CHARGES
-------------------------------
  0 C s       :     2.836183  s :     2.836183
      pz      :     1.031417  p :     3.138696
      px      :     1.068010
      py      :     1.039268
      dz2     :     0.014415  d :     0.077716
      dxz     :     0.012417
      dyz     :     0.023198
      dx2y2   :     0.017133
      dxy     :     0.010554
  1 C s       :     2.832723  s :     2.832723
      pz      :     0.974166  p :     2.722879
      px      :     0.718477
      py      :     1.030237
      dz2     :     0.045264  d :     0.298812
      dxz     :     0.026207
      dyz     :     0.129513
      dx2y2   :     0.041242
      dxy     :     0.056584
  2 C s       :     2.835016  s :     2.835016
      pz      :     0.909979  p :     2.990030
      px      :     1.046398
      py      :     1.033653
      dz2     :     0.027177  d :     0.141589
      dxz     :     0.022419
      dyz     :     0.040211
      dx2y2   :     0.016786
      dxy     :     0.034997
  3 C s       :     2.828732  s :     2.828732
      pz      :     1.074180  p :     3.113004
      px      :     0.992313
      py      :     1.046511
      dz2     :     0.017658  d :     0.082792
      dxz     :     0.005846
      dyz     :     0.021407
      dx2y2   :     0.011799
      dxy     :     0.026083
  4 C s       :     2.829589  s :     2.829589
      pz      :     0.816674  p :     2.717310
      px      :     0.969505
      py      :     0.931130
      dz2     :     0.042092  d :     0.299805
      dxz     :     0.058383
      dyz     :     0.039720
      dx2y2   :     0.064246
      dxy     :     0.095363
  5 C s       :     2.815751  s :     2.815751
      pz      :     1.064928  p :     2.995549
      px      :     0.921546
      py      :     1.009075
      dz2     :     0.023536  d :     0.115696
      dxz     :     0.012833
      dyz     :     0.024729
      dx2y2   :     0.016553
      dxy     :     0.038045
  6 N s       :     3.054711  s :     3.054711
      pz      :     1.190651  p :     3.979017
      px      :     1.613617
      py      :     1.174750
      dz2     :     0.018988  d :     0.054481
      dxz     :     0.006211
      dyz     :     0.017853
      dx2y2   :     0.006741
      dxy     :     0.004689
  7 N s       :     3.043163  s :     3.043163
      pz      :     1.462580  p :     3.982911
      px      :     1.167835
      py      :     1.352497
      dz2     :     0.006872  d :     0.055616
      dxz     :     0.008258
      dyz     :     0.008502
      dx2y2   :     0.016231
      dxy     :     0.015752
  8 O s       :     3.528546  s :     3.528546
      pz      :     1.470511  p :     4.720283
      px      :     1.779216
      py      :     1.470555
      dz2     :     0.004812  d :     0.033304
      dxz     :     0.002694
      dyz     :     0.012661
      dx2y2   :     0.007904
      dxy     :     0.005232
  9 O s       :     3.530267  s :     3.530267
      pz      :     1.790214  p :     4.707577
      px      :     1.452419
      py      :     1.464944
      dz2     :     0.005187  d :     0.033765
      dxz     :     0.000188
      dyz     :     0.006433
      dx2y2   :     0.013749
      dxy     :     0.008207
 10 H s       :     0.794710  s :     0.794710
      pz      :     0.019487  p :     0.135635
      px      :     0.047385
      py      :     0.068764
 11 H s       :     0.798225  s :     0.798225
      pz      :     0.060276  p :     0.138737
      px      :     0.019670
      py      :     0.058791
 12 H s       :     0.907522  s :     0.907522
      pz      :     0.040701  p :     0.066687
      px      :     0.010446
      py      :     0.015539
 13 H s       :     0.920427  s :     0.920427
      pz      :     0.023799  p :     0.064843
      px      :     0.010036
      py      :     0.031008
 14 H s       :     0.923031  s :     0.923031
      pz      :     0.012953  p :     0.064114
      px      :     0.030282
      py      :     0.020879
 15 H s       :     0.900888  s :     0.900888
      pz      :     0.037181  p :     0.068627
      px      :     0.013015
      py      :     0.018431
 16 H s       :     0.924696  s :     0.924696
      pz      :     0.014641  p :     0.065583
      px      :     0.028231
      py      :     0.022711
 17 H s       :     0.900471  s :     0.900471
      pz      :     0.026651  p :     0.068921
      px      :     0.012015
      py      :     0.030255
 18 H s       :     0.909019  s :     0.909019
      pz      :     0.012860  p :     0.067468
      px      :     0.017475
      py      :     0.037133
 19 H s       :     0.891106  s :     0.891106
      pz      :     0.029011  p :     0.067870
      px      :     0.020861
      py      :     0.017998
 20 H s       :     0.889569  s :     0.889569
      pz      :     0.016701  p :     0.068471
      px      :     0.038592
      py      :     0.013177
 21 H s       :     0.899549  s :     0.899549
      pz      :     0.025844  p :     0.068319
      px      :     0.015049
      py      :     0.027427


                      *****************************
                      * MAYER POPULATION ANALYSIS *
                      *****************************

  NA   - Mulliken gross atomic population
  ZA   - Total nuclear charge
  QA   - Mulliken gross atomic charge
  VA   - Mayer's total valence
  BVA  - Mayer's bonded valence
  FA   - Mayer's free valence

  ATOM       NA         ZA         QA         VA         BVA        FA
  0 C      6.0295     6.0000    -0.0295     3.8699     3.8699     0.0000
  1 C      5.6811     6.0000     0.3189     4.0933     4.0933    -0.0000
  2 C      5.9676     6.0000     0.0324     3.7797     3.7797    -0.0000
  3 C      5.9667     6.0000     0.0333     3.9345     3.9345    -0.0000
  4 C      5.5813     6.0000     0.4187     4.0659     4.0659    -0.0000
  5 C      5.8318     6.0000     0.1682     3.8895     3.8895    -0.0000
  6 N      7.4672     7.0000    -0.4672     2.8953     2.8953    -0.0000
  7 N      7.4405     7.0000    -0.4405     3.0135     3.0135    -0.0000
  8 O      8.4229     8.0000    -0.4229     2.0649     2.0649    -0.0000
  9 O      8.4081     8.0000    -0.4081     2.0587     2.0587     0.0000
 10 H      0.8503     1.0000     0.1497     0.9774     0.9774    -0.0000
 11 H      0.8498     1.0000     0.1502     0.9919     0.9919    -0.0000
 12 H      0.9450     1.0000     0.0550     0.9984     0.9984    -0.0000
 13 H      0.9583     1.0000     0.0417     0.9810     0.9810     0.0000
 14 H      0.9770     1.0000     0.0230     0.9837     0.9837    -0.0000
 15 H      0.9413     1.0000     0.0587     0.9968     0.9968     0.0000
 16 H      0.9853     1.0000     0.0147     0.9832     0.9832    -0.0000
 17 H      0.9352     1.0000     0.0648     1.0045     1.0045    -0.0000
 18 H      0.9596     1.0000     0.0404     0.9872     0.9872    -0.0000
 19 H      0.9286     1.0000     0.0714     1.0030     1.0030     0.0000
 20 H      0.9308     1.0000     0.0692     0.9879     0.9879     0.0000
 21 H      0.9420     1.0000     0.0580     0.9784     0.9784     0.0000

  Mayer bond orders larger than 0.100000
B(  0-C ,  1-C ) :   0.9928 B(  0-C , 18-H ) :   0.9802 B(  0-C , 19-H ) :   0.9787 
B(  0-C , 20-H ) :   0.9671 B(  1-C ,  6-N ) :   1.0899 B(  1-C ,  9-O ) :   1.9729 
B(  2-C ,  3-C ) :   1.0519 B(  2-C ,  4-C ) :   0.9189 B(  2-C ,  6-N ) :   0.8765 
B(  2-C , 21-H ) :   0.9587 B(  3-C , 15-H ) :   0.9732 B(  3-C , 16-H ) :   0.9819 
B(  3-C , 17-H ) :   0.9773 B(  4-C ,  7-N ) :   1.1781 B(  4-C ,  8-O ) :   1.9835 
B(  5-C ,  7-N ) :   0.9100 B(  5-C , 12-H ) :   0.9876 B(  5-C , 13-H ) :   0.9904 
B(  5-C , 14-H ) :   0.9931 B(  6-N , 10-H ) :   0.9490 B(  7-N , 11-H ) :   0.9407 


-------
TIMINGS
-------

Total SCF time: 0 days 0 hours 0 min 12 sec 

Total time                  ....      12.323 sec
Sum of individual times     ....      11.791 sec  ( 95.7%)

Fock matrix formation       ....      11.222 sec  ( 91.1%)
Diagonalization             ....       0.090 sec  (  0.7%)
Density matrix formation    ....       0.005 sec  (  0.0%)
Population analysis         ....       0.026 sec  (  0.2%)
Initial guess               ....       0.109 sec  (  0.9%)
Orbital Transformation      ....       0.000 sec  (  0.0%)
Orbital Orthonormalization  ....       0.000 sec  (  0.0%)
DIIS solution               ....       0.109 sec  (  0.9%)
SOSCF solution              ....       0.062 sec  (  0.5%)

Maximum memory used throughout the entire SCF-calculation: 229.4 MB

-------------------------   --------------------
FINAL SINGLE POINT ENERGY      -492.492911609498
-------------------------   --------------------



           ************************************************************
           *        Program running with 8 parallel MPI-processes     *
           *              working on a common directory               *
           ************************************************************
------------------------------------------------------------------------------
                         ORCA SCF GRADIENT CALCULATION
------------------------------------------------------------------------------

Gradient of the Hartree-Fock SCF energy:
Hartree-Fock type                ... RHF
Number of operators              ...    1
Number of atoms                  ...   22
Basis set dimensions             ...  200
Integral neglect threshold       ... 2.5e-11
Integral primitive cutoff        ... 2.5e-12
SHARK Integral package           ... ON

Nuc. rep. gradient       (SHARK) ... done (  0.0 sec)
HCore & Overlap gradient (SHARK) ... done (  0.1 sec)
Two-Electron gradient    (SHARK) ... done (  3.7 sec)

------------------
CARTESIAN GRADIENT
------------------

   1   C   :   -0.000068731   -0.000046431    0.000071969
   2   C   :    0.000103231   -0.000053519   -0.000062592
   3   C   :    0.000053137   -0.000044241    0.000041771
   4   C   :    0.000095647    0.000083943   -0.000041810
   5   C   :   -0.000048495    0.000001208    0.000005521
   6   C   :    0.000035597   -0.000112412    0.000000097
   7   N   :   -0.000153669   -0.000043674    0.000012538
   8   N   :    0.000018375    0.000059843   -0.000028756
   9   O   :   -0.000006341    0.000003979    0.000028572
  10   O   :   -0.000021700    0.000039184   -0.000006194
  11   H   :    0.000071394    0.000020381   -0.000028554
  12   H   :    0.000014343    0.000034566    0.000010697
  13   H   :   -0.000003720    0.000025032   -0.000008274
  14   H   :   -0.000003076   -0.000000905   -0.000015795
  15   H   :   -0.000019095    0.000023707    0.000032016
  16   H   :   -0.000037385   -0.000013207    0.000020873
  17   H   :   -0.000030337   -0.000031721   -0.000001093
  18   H   :   -0.000017681   -0.000020712   -0.000003875
  19   H   :   -0.000004192    0.000018301    0.000010757
  20   H   :    0.000034558    0.000016918   -0.000020843
  21   H   :    0.000007714    0.000030610   -0.000018533
  22   H   :   -0.000019573    0.000009150    0.000001509

Difference to translation invariance:
           :    0.0000000000    0.0000000000   -0.0000000000

Difference to rotation invariance:
           :   -0.0000009790    0.0000011218   -0.0000003731

Norm of the cartesian gradient     ...    0.0003510594
RMS gradient                       ...    0.0000432124
MAX gradient                       ...    0.0001536687

-------
TIMINGS
-------

Total SCF gradient time            ...        3.924 sec

One electron gradient       ....       0.067 sec  (  1.7%)
Two electron gradient       ....       3.724 sec  ( 94.9%)

Maximum memory used throughout the entire SCFGRAD-calculation: 19.6 MB
------------------------------------------------------------------------------
                         ORCA GEOMETRY RELAXATION STEP
------------------------------------------------------------------------------

Reading the OPT-File                    .... done
Getting information on internals        .... done
Copying old internal coords+grads       .... done
Making the new internal coordinates     .... (new redundants).... done
Validating the new internal coordinates .... (new redundants).... done
Calculating the B-matrix                .... done
Calculating the G,G- and P matrices     .... done
Transforming gradient to internals      .... done
Projecting the internal gradient        .... done
Number of atoms                         ....  22
Number of internal coordinates          ....  98
Current Energy                          ....  -492.492911609 Eh
Current gradient norm                   ....     0.000351059 Eh/bohr
Maximum allowed component of the step   ....  0.300
Current trust radius                    ....  0.300
Evaluating the initial hessian          ....  (Almloef) done
Projecting the Hessian                  .... done
Forming the augmented Hessian           .... done
Diagonalizing the augmented Hessian     .... done
Last element of RFO vector              ....  0.999990614
Lowest eigenvalues of augmented Hessian:
 -0.000000513  0.010097696  0.011490211  0.011842667  0.016313077
Length of the computed step             ....  0.004332648
The final length of the internal step   ....  0.004332648
Converting the step to cartesian space:
 Initial RMS(Int)=    0.0004376635
Transforming coordinates:
 Iter   0:  RMS(Cart)=    0.0008873433 RMS(Int)=    0.0004376482
 Iter   1:  RMS(Cart)=    0.0000004722 RMS(Int)=    0.0000002987
 Iter   2:  RMS(Cart)=    0.0000000005 RMS(Int)=    0.0000000003
done
Storing new coordinates                 .... done

                                .--------------------.
          ----------------------|Geometry convergence|-------------------------
          Item                value                   Tolerance       Converged
          ---------------------------------------------------------------------
          RMS gradient        0.0000222403            0.0001000000      YES
          MAX gradient        0.0000582738            0.0003000000      YES
          RMS step            0.0004376635            0.0020000000      YES
          MAX step            0.0015665672            0.0040000000      YES
          ........................................................
          Max(Bonds)      0.0001      Max(Angles)    0.01
          Max(Dihed)        0.09      Max(Improp)    0.00
          ---------------------------------------------------------------------

                    ***********************HURRAY********************
                    ***        THE OPTIMIZATION HAS CONVERGED     ***
                    *************************************************


    ---------------------------------------------------------------------------
                         Redundant Internal Coordinates

                          --- Optimized Parameters ---  
                            (Angstroem and degrees)

        Definition                    OldVal   dE/dq     Step     FinalVal
    ----------------------------------------------------------------------------
     1. B(C   1,C   0)                1.5118  0.000046 -0.0001    1.5117   
     2. B(C   3,C   2)                1.5256 -0.000019  0.0000    1.5256   
     3. B(C   4,C   2)                1.5348 -0.000038  0.0001    1.5349   
     4. B(N   6,C   2)                1.4571 -0.000051  0.0001    1.4571   
     5. B(N   6,C   1)                1.3643 -0.000016  0.0000    1.3643   
     6. B(N   7,C   5)                1.4438  0.000041 -0.0000    1.4437   
     7. B(N   7,C   4)                1.3494  0.000047 -0.0000    1.3493   
     8. B(O   8,C   4)                1.1945 -0.000018  0.0000    1.1945   
     9. B(O   9,C   1)                1.1926 -0.000042  0.0000    1.1926   
    10. B(H  10,N   6)                0.9977 -0.000000  0.0000    0.9977   
    11. B(H  11,N   7)                0.9955  0.000034 -0.0000    0.9955   
    12. B(H  12,C   5)                1.0866 -0.000001  0.0000    1.0866   
    13. B(H  13,C   5)                1.0923 -0.000010  0.0000    1.0923   
    14. B(H  14,C   5)                1.0892 -0.000001  0.0000    1.0892   
    15. B(H  15,C   3)                1.0869 -0.000005  0.0000    1.0869   
    16. B(H  16,C   3)                1.0919  0.000002 -0.0000    1.0919   
    17. B(H  17,C   3)                1.0877  0.000012 -0.0000    1.0877   
    18. B(H  18,C   0)                1.0900  0.000013 -0.0000    1.0900   
    19. B(H  19,C   0)                1.0865 -0.000005  0.0000    1.0865   
    20. B(H  20,C   0)                1.0919 -0.000009  0.0000    1.0919   
    21. B(H  21,C   2)                1.0926  0.000007 -0.0000    1.0926   
    22. A(C   1,C   0,H  19)          108.88 -0.000007    0.00    108.88   
    23. A(C   1,C   0,H  18)          112.27  0.000011    0.00    112.27   
    24. A(H  18,C   0,H  20)          108.34 -0.000025    0.01    108.35   
    25. A(C   1,C   0,H  20)          108.89  0.000013   -0.00    108.89   
    26. A(H  18,C   0,H  19)          109.90 -0.000017    0.01    109.91   
    27. A(H  19,C   0,H  20)          108.48  0.000027   -0.01    108.47   
    28. A(N   6,C   1,O   9)          122.21 -0.000013    0.00    122.21   
    29. A(C   0,C   1,O   9)          122.43  0.000001    0.00    122.43   
    30. A(C   0,C   1,N   6)          115.37  0.000012   -0.00    115.37   
    31. A(C   3,C   2,N   6)          113.52  0.000025   -0.00    113.51   
    32. A(N   6,C   2,H  21)          105.26 -0.000005    0.00    105.26   
    33. A(C   4,C   2,H  21)          103.93  0.000018   -0.01    103.92   
    34. A(C   4,C   2,N   6)          113.33 -0.000017    0.00    113.34   
    35. A(C   3,C   2,C   4)          111.64 -0.000009    0.00    111.64   
    36. A(C   3,C   2,H  21)          108.36 -0.000014    0.00    108.36   
    37. A(H  15,C   3,H  17)          108.28 -0.000037    0.01    108.29   
    38. A(C   2,C   3,H  17)          110.86  0.000012   -0.00    110.85   
    39. A(H  15,C   3,H  16)          108.94 -0.000046    0.01    108.94   
    40. A(C   2,C   3,H  16)          109.64  0.000051   -0.01    109.63   
    41. A(C   2,C   3,H  15)          110.03  0.000049   -0.01    110.02   
    42. A(H  16,C   3,H  17)          109.06 -0.000032    0.01    109.06   
    43. A(C   2,C   4,N   7)          116.12  0.000034   -0.01    116.11   
    44. A(N   7,C   4,O   8)          123.15 -0.000006   -0.00    123.15   
    45. A(C   2,C   4,O   8)          120.46 -0.000027    0.00    120.46   
    46. A(H  13,C   5,H  14)          108.83  0.000013   -0.00    108.83   
    47. A(H  12,C   5,H  14)          108.84  0.000026   -0.00    108.83   
    48. A(N   7,C   5,H  14)          109.08 -0.000058    0.01    109.09   
    49. A(H  12,C   5,H  13)          108.22  0.000009   -0.00    108.22   
    50. A(N   7,C   5,H  13)          112.12  0.000024   -0.00    112.11   
    51. A(N   7,C   5,H  12)          109.69 -0.000013    0.00    109.70   
    52. A(C   2,N   6,H  10)          116.61  0.000003   -0.01    116.61   
    53. A(C   1,N   6,H  10)          117.30  0.000025   -0.01    117.28   
    54. A(C   1,N   6,C   2)          122.73 -0.000015   -0.01    122.72   
    55. A(C   5,N   7,H  11)          118.38  0.000010    0.00    118.38   
    56. A(C   4,N   7,H  11)          117.54  0.000020   -0.00    117.54   
    57. A(C   4,N   7,C   5)          121.33 -0.000035    0.01    121.34   
    58. D(N   6,C   1,C   0,H  20)     85.21 -0.000020    0.01     85.22   
    59. D(O   9,C   1,C   0,H  19)     23.22  0.000031   -0.05     23.17   
    60. D(O   9,C   1,C   0,H  20)    -94.88 -0.000005   -0.04    -94.92   
    61. D(N   6,C   1,C   0,H  18)    -34.76 -0.000004   -0.00    -34.76   
    62. D(O   9,C   1,C   0,H  18)    145.15  0.000012   -0.05    145.10   
    63. D(N   6,C   1,C   0,H  19)   -156.68  0.000016   -0.01   -156.69   
    64. D(H  17,C   3,C   2,C   4)     64.71 -0.000011    0.02     64.72   
    65. D(H  16,C   3,C   2,H  21)    -60.97 -0.000001    0.01    -60.95   
    66. D(H  15,C   3,C   2,C   4)    -55.04 -0.000005    0.01    -55.02   
    67. D(H  15,C   3,C   2,N   6)    175.37  0.000004    0.01    175.38   
    68. D(H  16,C   3,C   2,N   6)     55.58 -0.000001    0.01     55.59   
    69. D(H  17,C   3,C   2,N   6)    -64.89 -0.000002    0.01    -64.87   
    70. D(H  15,C   3,C   2,H  21)     58.82  0.000004    0.01     58.83   
    71. D(H  16,C   3,C   2,C   4)   -174.83 -0.000010    0.02   -174.81   
    72. D(H  17,C   3,C   2,H  21)    178.57 -0.000002    0.01    178.58   
    73. D(O   8,C   4,C   2,H  21)    -92.59 -0.000008    0.03    -92.56   
    74. D(O   8,C   4,C   2,N   6)    153.69 -0.000005    0.03    153.72   
    75. D(O   8,C   4,C   2,C   3)     24.00 -0.000018    0.03     24.03   
    76. D(N   7,C   4,C   2,H  21)     81.62  0.000009   -0.01     81.61   
    77. D(N   7,C   4,C   2,N   6)    -32.10  0.000011   -0.01    -32.11   
    78. D(N   7,C   4,C   2,C   3)   -161.79 -0.000001   -0.01   -161.80   
    79. D(H  10,N   6,C   2,C   4)    135.93 -0.000017    0.04    135.97   
    80. D(H  10,N   6,C   2,C   3)    -95.34 -0.000022    0.05    -95.29   
    81. D(C   1,N   6,C   2,H  21)   -178.28  0.000016   -0.04   -178.32   
    82. D(C   1,N   6,C   2,C   4)    -65.36  0.000027   -0.05    -65.40   
    83. D(C   1,N   6,C   2,C   3)     63.38  0.000022   -0.04     63.33   
    84. D(H  10,N   6,C   1,O   9)    171.63  0.000024   -0.04    171.58   
    85. D(H  10,N   6,C   1,C   0)     -8.47  0.000039   -0.09     -8.56   
    86. D(C   2,N   6,C   1,O   9)     13.05 -0.000015    0.05     13.10   
    87. D(H  10,N   6,C   2,H  21)     23.01 -0.000028    0.05     23.06   
    88. D(C   2,N   6,C   1,C   0)   -167.04 -0.000000    0.00   -167.04   
    89. D(H  11,N   7,C   5,H  14)    -35.75  0.000010   -0.04    -35.80   
    90. D(H  11,N   7,C   5,H  13)     84.86  0.000003   -0.04     84.82   
    91. D(C   4,N   7,C   5,H  14)    163.50  0.000023   -0.07    163.43   
    92. D(C   4,N   7,C   5,H  13)    -75.89  0.000016   -0.07    -75.95   
    93. D(C   4,N   7,C   5,H  12)     44.38  0.000034   -0.07     44.30   
    94. D(H  11,N   7,C   4,O   8)   -170.18  0.000013   -0.03   -170.21   
    95. D(H  11,N   7,C   5,H  12)   -154.88  0.000022   -0.05   -154.92   
    96. D(H  11,N   7,C   4,C   2)     15.78 -0.000002    0.01     15.80   
    97. D(C   5,N   7,C   4,O   8)     -9.28 -0.000001   -0.01     -9.28   
    98. D(C   5,N   7,C   4,C   2)    176.69 -0.000017    0.04    176.72   
    ----------------------------------------------------------------------------
                 *******************************************************
                 *** FINAL ENERGY EVALUATION AT THE STATIONARY POINT ***
                 ***               (AFTER    1 CYCLES)               ***
                 *******************************************************
---------------------------------
CARTESIAN COORDINATES (ANGSTROEM)
---------------------------------
  C      1.382818    2.308715    4.053279
  C      1.361168    1.421509    2.829485
  C      0.813010    1.354982    0.415167
  C     -0.508365    0.595317    0.481339
  C      1.953975    0.462940   -0.093121
  C      4.361446    0.111445   -0.201711
  N      1.138682    2.063208    1.646249
  N      3.205880    0.896161    0.163288
  O      1.719418   -0.494740   -0.767348
  O      1.529288    0.242463    2.891362
  H      0.880310    3.025894    1.689632
  H      3.314947    1.607333    0.851269
  H      4.234605   -0.281633   -1.206708
  H      4.518011   -0.730054    0.476848
  H      5.245020    0.747998   -0.182064
  H     -0.734765    0.157555   -0.487421
  H     -1.312243    1.280795    0.757134
  H     -0.457830   -0.206327    1.214732
  H      1.811096    3.289244    3.845175
  H      1.952408    1.814676    4.835631
  H      0.359166    2.448731    4.406568
  H      0.725909    2.131249   -0.348784

----------------------------
CARTESIAN COORDINATES (A.U.)
----------------------------
  NO LB      ZA    FRAG     MASS         X           Y           Z
   0 C     6.0000    0    12.011    2.613147    4.362839    7.659588
   1 C     6.0000    0    12.011    2.572234    2.686262    5.346952
   2 C     6.0000    0    12.011    1.536366    2.560545    0.784552
   3 C     6.0000    0    12.011   -0.960671    1.124985    0.909599
   4 C     6.0000    0    12.011    3.692477    0.874831   -0.175972
   5 C     6.0000    0    12.011    8.241939    0.210600   -0.381178
   6 N     7.0000    0    14.007    2.151797    3.898898    3.110959
   7 N     7.0000    0    14.007    6.058234    1.693498    0.308570
   8 O     8.0000    0    15.999    3.249228   -0.934923   -1.450078
   9 O     8.0000    0    15.999    2.889935    0.458188    5.463882
[...]
     52      -0.020610   0.292081  -0.037313  -0.113163   0.003048   0.001729
     53       0.018581  -0.263051   0.033745   0.104661  -0.002809  -0.001432
     54       0.001439   0.029635   0.238238   0.000582   0.002591   0.272299
     55       0.003198   0.065945   0.530653   0.001207   0.006014   0.640532
     56      -0.000676  -0.014934  -0.120492  -0.000302  -0.001358  -0.139927
     57       0.001640   0.027340   0.217485  -0.000213   0.000073   0.053578
     58      -0.001479  -0.023943  -0.190860   0.000290  -0.000193  -0.061687
     59       0.002053   0.036241   0.290056   0.000139   0.000325   0.092564
     60      -0.003362  -0.081442  -0.638020  -0.000081   0.006605   0.643324
     61       0.000408   0.010220   0.081019   0.000067  -0.001013  -0.094839
     62       0.001095   0.027406   0.217511   0.000233  -0.002288  -0.221481
     63       0.002139  -0.018728   0.002279  -0.086836   0.000346  -0.000025
     64      -0.015763   0.134157  -0.017688   0.696081  -0.002618  -0.000364
     65       0.015329  -0.132211   0.016528  -0.674180   0.002485   0.000102
                 60         61         62         63         64         65    
      0      -0.000223  -0.000106  -0.044120   0.001502  -0.000178  -0.000003
      1      -0.000427   0.000309   0.062542  -0.002492  -0.000182  -0.000049
      2       0.000387  -0.000254  -0.054647   0.002126   0.000113   0.000025
      3      -0.000186   0.000035  -0.000470  -0.000088   0.000102  -0.000282
      4       0.000562  -0.000028   0.001862  -0.000481   0.000222  -0.000393
      5      -0.000176   0.000030  -0.000313  -0.000030  -0.001835   0.000119
      6      -0.001096  -0.000057   0.000025   0.000369   0.000710   0.000214
      7       0.003409  -0.000119  -0.000166  -0.003573   0.000879   0.000165
      8      -0.002667   0.000081   0.000349   0.004156   0.001555  -0.000083
      9      -0.025550  -0.000315   0.000479   0.014982   0.000040   0.000014
     10       0.084567   0.000561  -0.000275  -0.015568   0.000064  -0.000041
     11       0.017946  -0.001235   0.003551   0.091694   0.000158   0.000014
     12       0.000863   0.000266  -0.000052   0.000161  -0.000088  -0.000911
     13       0.001083   0.001199   0.000049   0.000399   0.000242   0.000042
     14       0.000636   0.000559  -0.000013   0.000201   0.000231   0.000553
     15       0.000054   0.038079  -0.000149   0.000528   0.000038   0.001363
     16       0.000152   0.037914  -0.000070   0.000464   0.000018  -0.000943
     17      -0.000521   0.077006  -0.000320   0.001148  -0.000000  -0.000164
     18       0.000217  -0.000002  -0.000024  -0.000268   0.018011   0.000058
     19      -0.000343   0.000006  -0.000318  -0.000053  -0.072020  -0.000813
     20      -0.000071  -0.000028   0.000267  -0.000462  -0.002060   0.000112
     21      -0.000105  -0.000809   0.000038  -0.000060  -0.000170   0.009211
     22      -0.000170  -0.000593  -0.000002  -0.000033  -0.000756   0.053425
     23      -0.000064  -0.001018   0.000031  -0.000022  -0.000690   0.049886
     24      -0.000533   0.000308  -0.000006  -0.000446  -0.000014  -0.000631
     25      -0.000456  -0.000502  -0.000030  -0.000035   0.000006  -0.000849
     26      -0.000245  -0.000422  -0.000015  -0.000137   0.000022  -0.000586
     27      -0.000205  -0.000025   0.000253   0.000252  -0.000128  -0.000025
     28      -0.000343   0.000009  -0.000750   0.000252   0.000882   0.000222
     29      -0.000186  -0.000014   0.000241   0.000184  -0.000275   0.000036
     30      -0.001350  -0.000022   0.000339   0.000277  -0.253267  -0.005015
     31      -0.000270   0.000048   0.001096  -0.000445   0.963636   0.013409
     32      -0.000713   0.000003   0.002326   0.000345   0.038040   0.000964
     33      -0.000632   0.005623  -0.000252  -0.000295   0.002291  -0.116696
     34      -0.000281   0.002278   0.000006  -0.000451   0.010017  -0.713490
     35      -0.000613   0.008088  -0.000319  -0.000076   0.009580  -0.686700
     36       0.000730  -0.110185   0.000422  -0.001541  -0.000109   0.002163
     37       0.001712  -0.317860   0.001107  -0.004569   0.000197  -0.004628
     38       0.004149  -0.826288   0.002946  -0.011862   0.000265  -0.007059
     39       0.000482  -0.010955   0.000187  -0.000246  -0.000063   0.001535
     40      -0.002480   0.117495  -0.001099   0.002261   0.000078  -0.001581
     41       0.002063  -0.081463   0.000783  -0.001618  -0.000048   0.000825
     42      -0.001331  -0.334375   0.001131  -0.004414  -0.000092  -0.005461
     43      -0.001077  -0.250056   0.000830  -0.003321  -0.000111  -0.001633
     44      -0.000169  -0.004313  -0.000004  -0.000065  -0.000026  -0.000536
     45      -0.117387   0.001533  -0.006264  -0.148546   0.000203   0.000429
     46      -0.212804   0.003437  -0.012487  -0.300893   0.000154   0.000278
     47      -0.495726   0.007372  -0.027024  -0.656031   0.000265   0.000479
     48       0.406249   0.001366   0.001962   0.008602  -0.000213  -0.000282
     49      -0.349918  -0.001292  -0.001668  -0.008058  -0.000365   0.000137
     50      -0.140158  -0.000627  -0.000327   0.004403  -0.000274   0.000039
     51       0.028583   0.000608  -0.001299  -0.034844  -0.000219  -0.000118
     52      -0.444452  -0.008689   0.017146   0.493100  -0.000212  -0.000132
     53       0.422596   0.007995  -0.015476  -0.445310  -0.000097  -0.000069
     54       0.001541  -0.000869  -0.145423   0.006403   0.000335   0.000077
     55       0.003590  -0.002054  -0.320228   0.014196   0.002964   0.001013
     56      -0.000893   0.000442   0.070233  -0.003022  -0.001414   0.000177
     57      -0.001871   0.001964   0.474958  -0.017893   0.000000  -0.000006
     58       0.001664  -0.001664  -0.411485   0.015488   0.000276   0.000024
     59      -0.002392   0.002568   0.648742  -0.024486  -0.000107   0.000113
     60       0.003439   0.000154   0.197920  -0.006561   0.000148   0.000379
     61      -0.000604   0.000011  -0.020243   0.000600   0.000224   0.000073
     62      -0.001335  -0.000093  -0.075245   0.002460   0.000159  -0.000185
     63       0.003153   0.000299  -0.000072  -0.001282  -0.002095  -0.000093
     64      -0.039871  -0.000353   0.001957   0.043074   0.005544  -0.000070
     65       0.035959  -0.000041  -0.001960  -0.041935  -0.006761   0.000411


-----------
IR SPECTRUM
-----------

 Mode   freq       eps      Int      T**2         TX        TY        TZ
       cm**-1   L/(mol*cm) km/mol    a.u.
----------------------------------------------------------------------------
  6:     55.45   0.000401    2.03  0.002258  ( 0.025630 -0.031083  0.025191)
  7:     67.97   0.000348    1.76  0.001597  ( 0.020161  0.021029 -0.027360)
  8:     78.64   0.000398    2.01  0.001578  ( 0.038463 -0.009668 -0.002175)
  9:     83.95   0.002468   12.47  0.009173  ( 0.066506  0.040124 -0.056038)
 10:     86.03   0.000508    2.57  0.001844  (-0.036127 -0.023075 -0.002566)
 11:    166.86   0.000429    2.17  0.000803  (-0.003588  0.008796 -0.026694)
 12:    194.67   0.000604    3.05  0.000968  ( 0.004168  0.013175  0.027874)
 13:    222.46   0.000192    0.97  0.000269  ( 0.008837 -0.013804  0.000342)
 14:    254.59   0.000177    0.89  0.000216  ( 0.004156  0.012406 -0.006726)
 15:    337.37   0.001767    8.93  0.001634  (-0.039962  0.002693 -0.005497)
 16:    367.83   0.001872    9.46  0.001588  ( 0.027396  0.017352 -0.023168)
 17:    395.02   0.002242   11.33  0.001771  ( 0.038741  0.001292 -0.016397)
 18:    482.98   0.005558   28.09  0.003591  (-0.017795  0.026490 -0.050721)
 19:    516.83   0.007033   35.54  0.004247  ( 0.056565  0.009150 -0.031035)
 20:    531.39   0.009697   49.00  0.005694  (-0.032315 -0.030447  0.061018)
 21:    561.88   0.017050   86.16  0.009469  ( 0.052725  0.079986 -0.017077)
 22:    635.81   0.009538   48.20  0.004681  (-0.051289 -0.029996  0.033924)
 23:    680.52   0.000769    3.89  0.000353  ( 0.014218 -0.011727  0.003616)
 24:    737.87   0.000860    4.35  0.000364  ( 0.017520  0.000170  0.007528)
 25:    847.38   0.003753   18.96  0.001382  ( 0.010156  0.019829 -0.029760)
 26:    914.33   0.001818    9.19  0.000620  ( 0.019406 -0.011024 -0.011062)
 27:    988.61   0.000117    0.59  0.000037  ( 0.005067 -0.001730  0.002873)
 28:   1016.27   0.000569    2.87  0.000175  ( 0.003572  0.006801  0.010750)
 29:   1085.40   0.003993   20.18  0.001148  ( 0.014159  0.017091 -0.025600)
 30:   1136.42   0.000864    4.37  0.000237  (-0.012301 -0.008589 -0.003500)
 31:   1149.11   0.002812   14.21  0.000764  ( 0.025270 -0.002354 -0.010936)
 32:   1174.45   0.000279    1.41  0.000074  (-0.006998  0.004386  0.002422)
 33:   1241.04   0.003908   19.75  0.000983  ( 0.029484  0.004474 -0.009662)
 34:   1242.68   0.000868    4.39  0.000218  ( 0.013074 -0.006318 -0.002681)
 35:   1257.27   0.003329   16.82  0.000826  ( 0.009238 -0.014154 -0.023253)
 36:   1288.44   0.000139    0.70  0.000034  ( 0.005446 -0.001075 -0.001706)
 37:   1363.88   0.018887   95.45  0.004322  ( 0.057039 -0.015691 -0.028669)
 38:   1382.27   0.022733  114.88  0.005132  (-0.020848 -0.002661 -0.068487)
 39:   1456.39   0.003209   16.22  0.000688  ( 0.017617 -0.005142  0.018730)
 40:   1483.57   0.008381   42.36  0.001763  (-0.012888 -0.003093 -0.039841)
 41:   1515.44   0.007675   38.78  0.001580  ( 0.005750 -0.009351 -0.038209)
 42:   1528.80   0.004686   23.68  0.000956  (-0.016638 -0.015690 -0.020821)
 43:   1565.56   0.003586   18.12  0.000715  (-0.005525  0.023581 -0.011323)
 44:   1567.32   0.001401    7.08  0.000279  (-0.012739  0.002928 -0.010399)
 45:   1585.82   0.001963    9.92  0.000386  (-0.001494  0.015766 -0.011637)
 46:   1586.87   0.001408    7.12  0.000277  (-0.014287 -0.000160 -0.008529)
 47:   1591.90   0.005045   25.49  0.000989  ( 0.027598  0.006864 -0.013423)
 48:   1604.56   0.001059    5.35  0.000206  (-0.002643  0.011322 -0.008418)
 49:   1616.25   0.001234    6.24  0.000238  (-0.009269  0.012149 -0.002187)
 50:   1681.29   0.052265  264.13  0.009701  (-0.019959  0.009740 -0.095957)
 51:   1705.74   0.061629  311.45  0.011275  (-0.105879 -0.007422 -0.003096)
 52:   1972.94   0.051033  257.90  0.008072  (-0.040847 -0.055461 -0.057685)
 53:   1989.68   0.072789  367.84  0.011416  (-0.012234  0.106140 -0.000926)
 54:   3186.76   0.011845   59.86  0.001160  ( 0.030839 -0.014255  0.002382)
 55:   3192.21   0.005422   27.40  0.000530  (-0.022019  0.002723  0.006148)
 56:   3192.67   0.001349    6.82  0.000132  ( 0.004304 -0.009494 -0.004816)
 57:   3209.71   0.003795   19.18  0.000369  ( 0.001742 -0.010891  0.015725)
 58:   3268.93   0.007328   37.03  0.000700  ( 0.014587  0.017967 -0.012806)
 59:   3275.18   0.002504   12.65  0.000239  (-0.010869 -0.010741  0.002251)
 60:   3288.39   0.002865   14.48  0.000272  (-0.007002  0.014248  0.004458)
 61:   3317.36   0.002138   10.80  0.000201  ( 0.005814  0.005512  0.011702)
 62:   3323.56   0.000970    4.90  0.000091  (-0.002617  0.006898 -0.006052)
 63:   3324.52   0.001590    8.03  0.000149  ( 0.002227 -0.001964  0.011849)
 64:   3873.10   0.009209   46.54  0.000742  (-0.007259  0.025945 -0.004025)
 65:   3910.82   0.010089   50.98  0.000805  (-0.005130 -0.019437 -0.020022)

* The epsilon (eps) is given for a Dirac delta lineshape.
** The dipole moment derivative (T) already includes vibrational overlap.

The first frequency considered to be a vibration is 6
The total number of vibrations considered is 60


--------------------------
THERMOCHEMISTRY AT 298.15K
--------------------------

Temperature         ... 298.15 K
Pressure            ... 1.00 atm
Total Mass          ... 144.17 AMU

Throughout the following assumptions are being made:
  (1) The electronic state is orbitally nondegenerate
  (2) There are no thermally accessible electronically excited states
  (3) Hindered rotations indicated by low frequency modes are not
      treated as such but are treated as vibrations and this may
      cause some error
  (4) All equations used are the standard statistical mechanics
      equations for an ideal gas
  (5) All vibrations are strictly harmonic

freq.      55.45  E(vib)   ...       0.52 
freq.      67.97  E(vib)   ...       0.50 
freq.      78.64  E(vib)   ...       0.49 
freq.      83.95  E(vib)   ...       0.48 
freq.      86.03  E(vib)   ...       0.48 
freq.     166.86  E(vib)   ...       0.39 
freq.     194.67  E(vib)   ...       0.36 
freq.     222.46  E(vib)   ...       0.33 
freq.     254.59  E(vib)   ...       0.30 
freq.     337.37  E(vib)   ...       0.24 
freq.     367.83  E(vib)   ...       0.21 
freq.     395.02  E(vib)   ...       0.20 
freq.     482.98  E(vib)   ...       0.15 
freq.     516.83  E(vib)   ...       0.13 
freq.     531.39  E(vib)   ...       0.13 
freq.     561.88  E(vib)   ...       0.11 
freq.     635.81  E(vib)   ...       0.09 
freq.     680.52  E(vib)   ...       0.08 
freq.     737.87  E(vib)   ...       0.06 
freq.     847.38  E(vib)   ...       0.04 
freq.     914.33  E(vib)   ...       0.03 
freq.     988.61  E(vib)   ...       0.02 
freq.    1016.27  E(vib)   ...       0.02 
freq.    1085.40  E(vib)   ...       0.02 
freq.    1136.42  E(vib)   ...       0.01 
freq.    1149.11  E(vib)   ...       0.01 
freq.    1174.45  E(vib)   ...       0.01 
freq.    1241.04  E(vib)   ...       0.01 
freq.    1242.68  E(vib)   ...       0.01 
freq.    1257.27  E(vib)   ...       0.01 
freq.    1288.44  E(vib)   ...       0.01 
freq.    1363.88  E(vib)   ...       0.01 
freq.    1382.27  E(vib)   ...       0.01 
freq.    1456.39  E(vib)   ...       0.00 
freq.    1483.57  E(vib)   ...       0.00 
freq.    1515.44  E(vib)   ...       0.00 
freq.    1528.80  E(vib)   ...       0.00 
freq.    1565.56  E(vib)   ...       0.00 
freq.    1567.32  E(vib)   ...       0.00 
freq.    1585.82  E(vib)   ...       0.00 
freq.    1586.87  E(vib)   ...       0.00 
freq.    1591.90  E(vib)   ...       0.00 
freq.    1604.56  E(vib)   ...       0.00 
freq.    1616.25  E(vib)   ...       0.00 
freq.    1681.29  E(vib)   ...       0.00 
freq.    1705.74  E(vib)   ...       0.00 
freq.    1972.94  E(vib)   ...       0.00 
freq.    1989.68  E(vib)   ...       0.00 
freq.    3186.76  E(vib)   ...       0.00 
freq.    3192.21  E(vib)   ...       0.00 
freq.    3192.67  E(vib)   ...       0.00 
freq.    3209.71  E(vib)   ...       0.00 
freq.    3268.93  E(vib)   ...       0.00 
freq.    3275.18  E(vib)   ...       0.00 
freq.    3288.39  E(vib)   ...       0.00 
freq.    3317.36  E(vib)   ...       0.00 
freq.    3323.56  E(vib)   ...       0.00 
freq.    3324.52  E(vib)   ...       0.00 
freq.    3873.10  E(vib)   ...       0.00 
freq.    3910.82  E(vib)   ...       0.00 

------------
INNER ENERGY
------------

The inner energy is: U= E(el) + E(ZPE) + E(vib) + E(rot) + E(trans)
    E(el)   - is the total energy from the electronic structure calculation
              = E(kin-el) + E(nuc-el) + E(el-el) + E(nuc-nuc)
    E(ZPE)  - the the zero temperature vibrational energy from the frequency calculation
    E(vib)  - the the finite temperature correction to E(ZPE) due to population
              of excited vibrational states
    E(rot)  - is the rotational thermal energy
    E(trans)- is the translational thermal energy

Summary of contributions to the inner energy U:
Electronic energy                ...   -492.49291198 Eh
Zero point energy                ...      0.19902300 Eh     124.89 kcal/mol
Thermal vibrational correction   ...      0.00873746 Eh       5.48 kcal/mol
Thermal rotational correction    ...      0.00141627 Eh       0.89 kcal/mol
Thermal translational correction ...      0.00141627 Eh       0.89 kcal/mol
-----------------------------------------------------------------------
Total thermal energy                   -492.28231898 Eh


Summary of corrections to the electronic energy:
(perhaps to be used in another calculation)
Total thermal correction                  0.01157000 Eh       7.26 kcal/mol
Non-thermal (ZPE) correction              0.19902300 Eh     124.89 kcal/mol
-----------------------------------------------------------------------
Total correction                          0.21059300 Eh     132.15 kcal/mol


--------
ENTHALPY
--------

The enthalpy is H = U + kB*T
                kB is Boltzmann's constant
Total free energy                 ...   -492.28231898 Eh 
Thermal Enthalpy correction       ...      0.00094421 Eh       0.59 kcal/mol
-----------------------------------------------------------------------
Total Enthalpy                    ...   -492.28137477 Eh


Note: Only C1 symmetry has been detected, increase convergence thresholds 
      if your molecule has a higher symmetry. Symmetry factor of 1.0 is   
      used for the rotational entropy correction. 
 

Note: Rotational entropy computed according to Herzberg 
Infrared and Raman Spectra, Chapter V,1, Van Nostrand Reinhold, 1945 
Point Group:  C1, Symmetry Number:   1  
Rotational constants in cm-1:     0.062900     0.032676     0.025518 

Vibrational entropy computed according to the QRRHO of S. Grimme
Chem.Eur.J. 2012 18 9955


-------
ENTROPY
-------

The entropy contributions are T*S = T*(S(el)+S(vib)+S(rot)+S(trans))
     S(el)   - electronic entropy
     S(vib)  - vibrational entropy
     S(rot)  - rotational entropy
     S(trans)- translational entropy
The entropies will be listed as multiplied by the temperature to get
units of energy

Electronic entropy                ...      0.00000000 Eh      0.00 kcal/mol
Vibrational entropy               ...      0.01559772 Eh      9.79 kcal/mol
Rotational entropy                ...      0.01416359 Eh      8.89 kcal/mol
Translational entropy             ...      0.01938939 Eh     12.17 kcal/mol
-----------------------------------------------------------------------
Final entropy term                ...      0.04915069 Eh     30.84 kcal/mol

In case the symmetry of your molecule has not been determined correctly
or in case you have a reason to use a different symmetry number we print 
out the resulting rotational entropy values for sn=1,12 :
 --------------------------------------------------------
|  sn= 1 | S(rot)=       0.01416359 Eh      8.89 kcal/mol|
|  sn= 2 | S(rot)=       0.01350913 Eh      8.48 kcal/mol|
|  sn= 3 | S(rot)=       0.01312630 Eh      8.24 kcal/mol|
|  sn= 4 | S(rot)=       0.01285468 Eh      8.07 kcal/mol|
|  sn= 5 | S(rot)=       0.01264399 Eh      7.93 kcal/mol|
|  sn= 6 | S(rot)=       0.01247185 Eh      7.83 kcal/mol|
|  sn= 7 | S(rot)=       0.01232630 Eh      7.73 kcal/mol|
|  sn= 8 | S(rot)=       0.01220022 Eh      7.66 kcal/mol|
|  sn= 9 | S(rot)=       0.01208901 Eh      7.59 kcal/mol|
|  sn=10 | S(rot)=       0.01198953 Eh      7.52 kcal/mol|
|  sn=11 | S(rot)=       0.01189954 Eh      7.47 kcal/mol|
|  sn=12 | S(rot)=       0.01181739 Eh      7.42 kcal/mol|
 --------------------------------------------------------


-------------------
GIBBS FREE ENERGY
-------------------

The Gibbs free energy is G = H - T*S

Total enthalpy                    ...   -492.28137477 Eh 
Total entropy correction          ...     -0.04915069 Eh    -30.84 kcal/mol
-----------------------------------------------------------------------
Final Gibbs free energy         ...   -492.33052547 Eh

For completeness - the Gibbs free energy minus the electronic energy
G-E(el)                           ...      0.16238652 Eh    101.90 kcal/mol


Timings for individual modules:

Sum of individual times         ...      256.175 sec (=   4.270 min)
GTO integral calculation        ...        3.987 sec (=   0.066 min)   1.6 %
SCF iterations                  ...       20.260 sec (=   0.338 min)   7.9 %
SCF Gradient evaluation         ...        5.651 sec (=   0.094 min)   2.2 %
Geometry relaxation             ...        0.082 sec (=   0.001 min)   0.0 %
Analytical frequency calculation...      226.195 sec (=   3.770 min)  88.3 %
                             ****ORCA TERMINATED NORMALLY****
TOTAL RUN TIME: 0 days 0 hours 4 minutes 18 seconds 679 msec
