
                                 *****************
                                 * O   R   C   A *
                                 *****************

                                            #,                                       
                                            ###                                      
                                            ####                                     
                                            #####                                    
                                            ######                                   
                                           ########,                                 
                                     ,,################,,,,,                         
                               ,,#################################,,                 
                          ,,##########################################,,             
                       ,#########################################, ''#####,          
                    ,#############################################,,   '####,        
                  ,##################################################,,,,####,       
                ,###########''''           ''''###############################       
              ,#####''   ,,,,##########,,,,          '''####'''          '####       
            ,##' ,,,,###########################,,,                        '##       
           ' ,,###''''                  '''############,,,                           
         ,,##''                                '''############,,,,        ,,,,,,###''
      ,#''                                            '''#######################'''  
     '                                                          ''''####''''         
             ,#######,   #######,   ,#######,      ##                                
            ,#'     '#,  ##    ##  ,#'     '#,    #''#        ######   ,####,        
            ##       ##  ##   ,#'  ##            #'  '#       #        #'  '#        
            ##       ##  #######   ##           ,######,      #####,   #    #        
            '#,     ,#'  ##    ##  '#,     ,#' ,#      #,         ##   #,  ,#        
             '#######'   ##     ##  '#######'  #'      '#     #####' # '####'        



                  #######################################################
                  #                        -***-                        #
                  #          Department of theory and spectroscopy      #
                  #    Directorship and core code : Frank Neese         #
                  #        Max Planck Institute fuer Kohlenforschung    #
                  #                Kaiser Wilhelm Platz 1               #
                  #                 D-45470 Muelheim/Ruhr               #
                  #                      Germany                        #
                  #                                                     #
                  #                  All rights reserved                #
                  #                        -***-                        #
                  #######################################################


                         Program Version 5.0.4 -  RELEASE  -


 With contributions from (in alphabetic order):
   Daniel Aravena         : Magnetic Suceptibility
   Michael Atanasov       : Ab Initio Ligand Field Theory (pilot matlab implementation)
   Alexander A. Auer      : GIAO ZORA, VPT2 properties, NMR spectrum
   Ute Becker             : Parallelization
   Giovanni Bistoni       : ED, misc. LED, open-shell LED, HFLD
   Martin Brehm           : Molecular dynamics
   Dmytro Bykov           : SCF Hessian
   Vijay G. Chilkuri      : MRCI spin determinant printing, contributions to CSF-ICE
   Dipayan Datta          : RHF DLPNO-CCSD density
   Achintya Kumar Dutta   : EOM-CC, STEOM-CC
   Dmitry Ganyushin       : Spin-Orbit,Spin-Spin,Magnetic field MRCI
   Miquel Garcia          : C-PCM and meta-GGA Hessian, CC/C-PCM, Gaussian charge scheme
   Yang Guo               : DLPNO-NEVPT2, F12-NEVPT2, CIM, IAO-localization
   Andreas Hansen         : Spin unrestricted coupled pair/coupled cluster methods
   Benjamin Helmich-Paris : MC-RPA, TRAH-SCF, COSX integrals
   Lee Huntington         : MR-EOM, pCC
   Robert Izsak           : Overlap fitted RIJCOSX, COSX-SCS-MP3, EOM
   Marcus Kettner         : VPT2
   Christian Kollmar      : KDIIS, OOCD, Brueckner-CCSD(T), CCSD density, CASPT2, CASPT2-K
   Simone Kossmann        : Meta GGA functionals, TD-DFT gradient, OOMP2, MP2 Hessian
   Martin Krupicka        : Initial AUTO-CI
   Lucas Lang             : DCDCAS
   Marvin Lechner         : AUTO-CI (C++ implementation), FIC-MRCC
   Dagmar Lenk            : GEPOL surface, SMD
   Dimitrios Liakos       : Extrapolation schemes; Compound Job, initial MDCI parallelization
   Dimitrios Manganas     : Further ROCIS development; embedding schemes
   Dimitrios Pantazis     : SARC Basis sets
   Anastasios Papadopoulos: AUTO-CI, single reference methods and gradients
   Taras Petrenko         : DFT Hessian,TD-DFT gradient, ASA, ECA, R-Raman, ABS, FL, XAS/XES, NRVS
   Peter Pinski           : DLPNO-MP2, DLPNO-MP2 Gradient
   Christoph Reimann      : Effective Core Potentials
   Marius Retegan         : Local ZFS, SOC
   Christoph Riplinger    : Optimizer, TS searches, QM/MM, DLPNO-CCSD(T), (RO)-DLPNO pert. Triples
   Tobias Risthaus        : Range-separated hybrids, TD-DFT gradient, RPA, STAB
   Michael Roemelt        : Original ROCIS implementation
   Masaaki Saitow         : Open-shell DLPNO-CCSD energy and density
   Barbara Sandhoefer     : DKH picture change effects
   Avijit Sen             : IP-ROCIS
   Kantharuban Sivalingam : CASSCF convergence, NEVPT2, FIC-MRCI
   Bernardo de Souza      : ESD, SOC TD-DFT
   Georgi Stoychev        : AutoAux, RI-MP2 NMR, DLPNO-MP2 response
   Willem Van den Heuvel  : Paramagnetic NMR
   Boris Wezisla          : Elementary symmetry handling
   Frank Wennmohs         : Technical directorship


 We gratefully acknowledge several colleagues who have allowed us to
 interface, adapt or use parts of their codes:
   Stefan Grimme, W. Hujo, H. Kruse, P. Pracht,  : VdW corrections, initial TS optimization,
                  C. Bannwarth, S. Ehlert          DFT functionals, gCP, sTDA/sTD-DF
   Ed Valeev, F. Pavosevic, A. Kumar             : LibInt (2-el integral package), F12 methods
   Garnet Chan, S. Sharma, J. Yang, R. Olivares  : DMRG
   Ulf Ekstrom                                   : XCFun DFT Library
   Mihaly Kallay                                 : mrcc  (arbitrary order and MRCC methods)
   Jiri Pittner, Ondrej Demel                    : Mk-CCSD
   Frank Weinhold                                : gennbo (NPA and NBO analysis)
   Christopher J. Cramer and Donald G. Truhlar   : smd solvation model
   Lars Goerigk                                  : TD-DFT with DH, B97 family of functionals
   V. Asgeirsson, H. Jonsson                     : NEB implementation
   FAccTs GmbH                                   : IRC, NEB, NEB-TS, DLPNO-Multilevel, CI-OPT
                                                   MM, QMMM, 2- and 3-layer-ONIOM, Crystal-QMMM,
                                                   LR-CPCM, SF, NACMEs, symmetry and pop. for TD-DFT,
                                                   nearIR, NL-DFT gradient (VV10), updates on ESD,
                                                   ML-optimized integration grids
   S Lehtola, MJT Oliveira, MAL Marques          : LibXC Library
   Liviu Ungur et al                             : ANISO software


 Your calculation uses the libint2 library for the computation of 2-el integrals
 For citations please refer to: http://libint.valeyev.net

 Your ORCA version has been built with support for libXC version: 5.1.0
 For citations please refer to: https://tddft.org/programs/libxc/

 This ORCA versions uses:
   CBLAS   interface :  Fast vector & matrix operations
   LAPACKE interface :  Fast linear algebra routines
   SCALAPACK package :  Parallel linear algebra routines
   Shared memory     :  Shared parallel matrices
   BLAS/LAPACK       :  OpenBLAS 0.3.15  USE64BITINT DYNAMIC_ARCH NO_AFFINITY Haswell SINGLE_THREADED
        Core in use  :  Haswell
   Copyright (c) 2011-2014, The OpenBLAS Project


================================================================================

----- Orbital basis set information -----
Your calculation utilizes the basis: def2-SVP
   F. Weigend and R. Ahlrichs, Phys. Chem. Chem. Phys. 7, 3297 (2005).

================================================================================
                                        WARNINGS
                       Please study these warnings very carefully!
================================================================================


WARNING: Geometry Optimization
  ===> : Switching off AutoStart
         For restart on a previous wavefunction, please use MOREAD

INFO   : the flag for use of the SHARK integral package has been found!

================================================================================
                                       INPUT FILE
================================================================================
NAME = a_freq.inp
|  1> # avogadro generated ORCA input file 
|  2> # Basic Mode
|  3> # 
|  4> ! RHF OPT FREQ def2-SVP 
|  5> 
|  6> * xyz 0 1
|  7>    C        1.43790        2.30627        4.02135
|  8>    C        1.30782        1.40689        2.82112
|  9>    C        0.81235        1.36436        0.38183
| 10>    C       -0.52630        0.63704        0.44957
| 11>    C        1.58386        0.03679        0.18282
| 12>    C        3.83033       -0.94795        0.05843
| 13>    N        1.13795        2.07265        1.62747
| 14>    N        2.95841        0.19401        0.14607
| 15>    O        1.02743       -1.02189       -0.09960
| 16>    O        1.39691        0.18958        2.91142
| 17>    H        0.86695        3.04642        1.66927
| 18>    H        3.30792        1.02582        0.60470
| 19>    H        3.43129       -1.68494       -0.64320
| 20>    H        3.91445       -1.39837        1.05103
| 21>    H        4.81286       -0.60748       -0.27622
| 22>    H       -0.80753        0.24310       -0.53304
| 23>    H       -1.32073        1.31341        0.78270
| 24>    H       -0.49345       -0.21027        1.14187
| 25>    H        1.35862        3.36262        3.75118
| 26>    H        2.41497        2.14019        4.48355
| 27>    H        0.64542        2.06646        4.73499
| 28>    H        0.72038        2.16019       -0.36941
| 29> *
| 30> 
| 31> 
| 32>                          ****END OF INPUT****
================================================================================

                       *****************************
                       * Geometry Optimization Run *
                       *****************************

Geometry optimization settings:
Update method            Update   .... BFGS
Choice of coordinates    CoordSys .... Z-matrix Internals
Initial Hessian          InHess   .... Almoef's Model

Convergence Tolerances:
Energy Change            TolE     ....  5.0000e-06 Eh
Max. Gradient            TolMAXG  ....  3.0000e-04 Eh/bohr
RMS Gradient             TolRMSG  ....  1.0000e-04 Eh/bohr
Max. Displacement        TolMAXD  ....  4.0000e-03 bohr
RMS Displacement         TolRMSD  ....  2.0000e-03 bohr
Strict Convergence                ....  False
------------------------------------------------------------------------------
                        ORCA OPTIMIZATION COORDINATE SETUP
------------------------------------------------------------------------------

The optimization will be done in new redundant internal coordinates
Making redundant internal coordinates   ...  (new redundants) done
Evaluating the initial hessian          ...  (Almloef) done
Evaluating the coordinates              ...  done
Calculating the B-matrix                .... done
Calculating the G-matrix                .... done
Diagonalizing the G-matrix              .... done
Small eigenvalue found = 1.151e-02
Small eigenvalue found = 2.573e-02
Small eigenvalue found = 2.933e-02
The first mode is                       ....   38
The number of degrees of freedom        ....   60

    -----------------------------------------------------------------
                    Redundant Internal Coordinates


    -----------------------------------------------------------------
         Definition                    Initial Value    Approx d2E/dq
    -----------------------------------------------------------------
      1. B(C   1,C   0)                  1.5054         0.408844   
      2. B(C   3,C   2)                  1.5250         0.380527   
      3. B(C   4,C   2)                  1.5483         0.349269   
      4. B(N   6,C   2)                  1.4695         0.417930   
      5. B(N   6,C   1)                  1.3773         0.586373   
      6. B(N   7,C   5)                  1.4394         0.466650   
      7. B(N   7,C   4)                  1.3840         0.572068   
      8. B(O   8,C   4)                  1.2289         1.011372   
      9. B(O   9,C   1)                  1.2239         1.030090   
     10. B(H  10,N   6)                  1.0116         0.430108   
     11. B(H  11,N   7)                  1.0121         0.429336   
     12. B(H  12,C   5)                  1.0930         0.356139   
     13. B(H  13,C   5)                  1.0933         0.355818   
     14. B(H  14,C   5)                  1.0924         0.356976   
     15. B(H  15,C   3)                  1.0954         0.353086   
     16. B(H  16,C   3)                  1.0952         0.353222   
     17. B(H  17,C   3)                  1.0947         0.353981   
     18. B(H  18,C   0)                  1.0932         0.355852   
     19. B(H  19,C   0)                  1.0936         0.355419   
     20. B(H  20,C   0)                  1.0931         0.356054   
     21. B(H  21,C   2)                  1.0983         0.349343   
     22. A(C   1,C   0,H  19)          108.8710         0.328463   
     23. A(C   1,C   0,H  18)          111.9608         0.328529   
     24. A(H  18,C   0,H  20)          108.7087         0.289784   
     25. A(C   1,C   0,H  20)          109.0745         0.328560   
     26. A(H  18,C   0,H  19)          108.4207         0.289703   
     27. A(H  19,C   0,H  20)          109.7861         0.289728   
     28. A(N   6,C   1,O   9)          123.6217         0.464965   
     29. A(C   0,C   1,O   9)          121.9440         0.438372   
     30. A(C   0,C   1,N   6)          114.3831         0.396541   
     31. A(C   3,C   2,N   6)          112.7516         0.369259   
     32. A(N   6,C   2,H  21)          104.4255         0.326747   
     33. A(C   4,C   2,H  21)          125.1085         0.319177   
     34. A(C   4,C   2,N   6)          114.3200         0.363874   
     35. A(C   3,C   2,C   4)           91.9585         0.360335   
     36. A(C   3,C   2,H  21)          107.6065         0.323686   
     37. A(H  15,C   3,H  17)          107.2571         0.289165   
     38. A(C   2,C   3,H  17)          111.7722         0.324388   
     39. A(H  15,C   3,H  16)          107.9822         0.289068   
     40. A(C   2,C   3,H  16)          110.8360         0.324274   
     41. A(C   2,C   3,H  15)          110.9196         0.324253   
     42. A(H  16,C   3,H  17)          107.9033         0.289182   
     43. A(C   2,C   4,N   7)          113.6344         0.384117   
     44. A(N   7,C   4,O   8)          122.7830         0.461321   
     45. A(C   2,C   4,O   8)          122.8599         0.424741   
     46. A(H  13,C   5,H  14)          109.7155         0.289897   
     47. A(H  12,C   5,H  14)          109.9912         0.289938   
     48. A(N   7,C   5,H  14)          108.4340         0.333951   
     49. A(H  12,C   5,H  13)          109.4578         0.289790   
     50. A(N   7,C   5,H  13)          108.5530         0.333771   
     51. A(N   7,C   5,H  12)          110.6627         0.333821   
     52. A(C   2,N   6,H  10)          116.0804         0.335303   
     53. A(C   1,N   6,H  10)          117.5500         0.354923   
     54. A(C   1,N   6,C   2)          121.9379         0.395532   
     55. A(C   5,N   7,H  11)          118.0610         0.341424   
     56. A(C   4,N   7,H  11)          115.1058         0.353334   
     57. A(C   4,N   7,C   5)          120.8701         0.401526   
     58. D(N   6,C   1,C   0,H  20)    121.3268         0.012383   
     59. D(O   9,C   1,C   0,H  19)     58.5954         0.012383   
     60. D(O   9,C   1,C   0,H  20)    -61.1874         0.012383   
     61. D(N   6,C   1,C   0,H  18)      0.9706         0.012383   
     62. D(O   9,C   1,C   0,H  18)    178.4564         0.012383   
     63. D(N   6,C   1,C   0,H  19)   -118.8903         0.012383   
     64. D(H  17,C   3,C   2,C   4)     48.9085         0.011539   
     65. D(H  16,C   3,C   2,H  21)    -62.7581         0.011539   
     66. D(H  15,C   3,C   2,C   4)    -70.7393         0.011539   
     67. D(H  15,C   3,C   2,N   6)    171.7972         0.011539   
     68. D(H  16,C   3,C   2,N   6)     51.8558         0.011539   
     69. D(H  17,C   3,C   2,N   6)    -68.5550         0.011539   
     70. D(H  15,C   3,C   2,H  21)     57.1833         0.011539   
     71. D(H  16,C   3,C   2,C   4)    169.3193         0.011539   
     72. D(H  17,C   3,C   2,H  21)    176.8311         0.011539   
     73. D(O   8,C   4,C   2,H  21)    -99.8105         0.009221   
     74. D(O   8,C   4,C   2,N   6)    129.5038         0.009221   
     75. D(O   8,C   4,C   2,C   3)     13.3935         0.009221   
     76. D(N   7,C   4,C   2,H  21)     70.6858         0.009221   
     77. D(N   7,C   4,C   2,N   6)    -59.9998         0.009221   
     78. D(N   7,C   4,C   2,C   3)   -176.1102         0.009221   
     79. D(H  10,N   6,C   2,C   4)    163.0867         0.014895   
     80. D(H  10,N   6,C   2,C   3)    -93.6046         0.014895   
     81. D(C   1,N   6,C   2,H  21)    178.6920         0.014895   
     82. D(C   1,N   6,C   2,C   4)    -41.1393         0.014895   
     83. D(C   1,N   6,C   2,C   3)     62.1694         0.014895   
     84. D(H  10,N   6,C   1,O   9)    166.4473         0.027617   
     85. D(H  10,N   6,C   1,C   0)    -16.1149         0.027617   
     86. D(C   2,N   6,C   1,O   9)     11.0102         0.027617   
     87. D(H  10,N   6,C   2,H  21)     22.9181         0.014895   
     88. D(C   2,N   6,C   1,C   0)   -171.5519         0.027617   
     89. D(H  11,N   7,C   5,H  14)    -46.4611         0.018600   
     90. D(H  11,N   7,C   5,H  13)     72.6797         0.018600   
     91. D(C   4,N   7,C   5,H  14)    162.0373         0.018600   
     92. D(C   4,N   7,C   5,H  13)    -78.8219         0.018600   
     93. D(C   4,N   7,C   5,H  12)     41.3173         0.018600   
     94. D(H  11,N   7,C   4,O   8)   -166.0254         0.026203   
     95. D(H  11,N   7,C   5,H  12)   -167.1811         0.018600   
     96. D(H  11,N   7,C   4,C   2)     23.4700         0.026203   
     97. D(C   5,N   7,C   4,O   8)    -13.7339         0.026203   
     98. D(C   5,N   7,C   4,C   2)    175.7614         0.026203   
    -----------------------------------------------------------------

Number of atoms                         .... 22
Number of degrees of freedom            .... 98

         *************************************************************
         *                GEOMETRY OPTIMIZATION CYCLE   1            *
         *************************************************************
---------------------------------
CARTESIAN COORDINATES (ANGSTROEM)
---------------------------------
  C      1.437900    2.306270    4.021350
  C      1.307820    1.406890    2.821120
  C      0.812350    1.364360    0.381830
  C     -0.526300    0.637040    0.449570
  C      1.583860    0.036790    0.182820
  C      3.830330   -0.947950    0.058430
  N      1.137950    2.072650    1.627470
  N      2.958410    0.194010    0.146070
  O      1.027430   -1.021890   -0.099600
  O      1.396910    0.189580    2.911420
  H      0.866950    3.046420    1.669270
  H      3.307920    1.025820    0.604700
  H      3.431290   -1.684940   -0.643200
  H      3.914450   -1.398370    1.051030
  H      4.812860   -0.607480   -0.276220
  H     -0.807530    0.243100   -0.533040
  H     -1.320730    1.313410    0.782700
  H     -0.493450   -0.210270    1.141870
  H      1.358620    3.362620    3.751180
  H      2.414970    2.140190    4.483550
  H      0.645420    2.066460    4.734990
  H      0.720380    2.160190   -0.369410

----------------------------
CARTESIAN COORDINATES (A.U.)
----------------------------
  NO LB      ZA    FRAG     MASS         X           Y           Z
   0 C     6.0000    0    12.011    2.717237    4.358219    7.599250
   1 C     6.0000    0    12.011    2.471422    2.658637    5.331144
   2 C     6.0000    0    12.011    1.535119    2.578267    0.721554
   3 C     6.0000    0    12.011   -0.994563    1.203831    0.849564
   4 C     6.0000    0    12.011    2.993062    0.069523    0.345480
   5 C     6.0000    0    12.011    7.238275   -1.791366    0.110417
   6 N     7.0000    0    14.007    2.150414    3.916741    3.075473
   7 N     7.0000    0    14.007    5.590585    0.366626    0.276032
   8 O     8.0000    0    15.999    1.941561   -1.931092   -0.188217
   9 O     8.0000    0    15.999    2.639777    0.358254    5.501786
  10 H     1.0000    0     1.008    1.638298    5.756899    3.154463
  11 H     1.0000    0     1.008    6.251063    1.938519    1.142717
  12 H     1.0000    0     1.008    6.484198   -3.184075   -1.215472
  13 H     1.0000    0     1.008    7.397238   -2.642536    1.986159
  14 H     1.0000    0     1.008    9.094987   -1.147971   -0.521980
  15 H     1.0000    0     1.008   -1.526011    0.459392   -1.007300
  16 H     1.0000    0     1.008   -2.495818    2.481985    1.479089
  17 H     1.0000    0     1.008   -0.932485   -0.397353    2.157822
  18 H     1.0000    0     1.008    2.567420    6.354431    7.088703
  19 H     1.0000    0     1.008    4.563632    4.044373    8.472682
  20 H     1.0000    0     1.008    1.219667    3.905043    8.947834
  21 H     1.0000    0     1.008    1.361321    4.082167   -0.698084

--------------------------------
INTERNAL COORDINATES (ANGSTROEM)
--------------------------------
 C      0   0   0     0.000000000000     0.00000000     0.00000000
 C      1   0   0     1.505442540816     0.00000000     0.00000000
 C      2   1   0     2.489464807122   143.95892559     0.00000000
 C      3   2   1     1.524980954799    98.00916666   248.58773755
 C      3   2   1     1.548313522869    92.37375669   156.27379395
 C      5   3   2     2.455974999995   143.71531834   285.59484773
 N      2   1   3     1.377277211385   114.38314335     7.18521684
 N      5   3   2     1.384000142124   113.63436921   281.99267097
 O      5   3   2     1.228893300372   122.85985128   111.49631158
 O      2   1   3     1.223901447912   121.94396499   184.67097237
 H      7   2   1     1.011640377259   117.55002054   343.88510800
 H      8   5   3     1.012129731359   115.10578865    23.46996439
 H      6   5   3     1.093010447617    88.21937139   211.60451833
 H      6   5   3     1.093256196324   100.92883867   102.12759395
 H      6   5   3     1.092371568790   135.50127887   328.75771665
 H      4   3   2     1.095354485361   110.91959708   196.58616833
 H      4   3   2     1.095249286099   110.83599127    76.64476474
 H      4   3   2     1.094665541889   111.77215082   316.23395465
 H      1   2   3     1.093230291293   111.96078248   353.78539843
 H      1   2   3     1.093561699814   108.87098338   233.92445000
 H      1   2   3     1.093076134631   109.07451323   114.14162635
 H      3   2   1     1.098255620245   132.41773572    11.42955455

---------------------------
INTERNAL COORDINATES (A.U.)
---------------------------
 C      0   0   0     0.000000000000     0.00000000     0.00000000
 C      1   0   0     2.844874112498     0.00000000     0.00000000
 C      2   1   0     4.704406705496   143.95892559     0.00000000
 C      3   2   1     2.881796364016    98.00916666   248.58773755
 C      3   2   1     2.925888527670    92.37375669   156.27379395
 C      5   3   2     4.641120141748   143.71531834   285.59484773
 N      2   1   3     2.602676740008   114.38314335     7.18521684
 N      5   3   2     2.615381237923   113.63436921   281.99267097
 O      5   3   2     2.322271785514   122.85985128   111.49631158
 O      2   1   3     2.312838551463   121.94396499   184.67097237
 H      7   2   1     1.911723259036   117.55002054   343.88510800
 H      8   5   3     1.912648004267   115.10578865    23.46996439
 H      6   5   3     2.065490407511    88.21937139   211.60451833
 H      6   5   3     2.065954805264   100.92883867   102.12759395
 H      6   5   3     2.064283101494   135.50127887   328.75771665
 H      4   3   2     2.069919996894   110.91959708   196.58616833
 H      4   3   2     2.069721199100   110.83599127    76.64476474
 H      4   3   2     2.068618082411   111.77215082   316.23395465
 H      1   2   3     2.065905851850   111.96078248   353.78539843
 H      1   2   3     2.066532123194   108.87098338   233.92445000
 H      1   2   3     2.065614537978   109.07451323   114.14162635
 H      3   2   1     2.075402347303   132.41773572    11.42955455

---------------------
BASIS SET INFORMATION
---------------------
There are 4 groups of distinct atoms

 Group   1 Type C   : 7s4p1d contracted to 3s2p1d pattern {511/31/1}
 Group   2 Type N   : 7s4p1d contracted to 3s2p1d pattern {511/31/1}
 Group   3 Type O   : 7s4p1d contracted to 3s2p1d pattern {511/31/1}
 Group   4 Type H   : 4s1p contracted to 2s1p pattern {31/1}

Atom   0C    basis set group =>   1
Atom   1C    basis set group =>   1
Atom   2C    basis set group =>   1
Atom   3C    basis set group =>   1
Atom   4C    basis set group =>   1
Atom   5C    basis set group =>   1
Atom   6N    basis set group =>   2
Atom   7N    basis set group =>   2
Atom   8O    basis set group =>   3
Atom   9O    basis set group =>   3
Atom  10H    basis set group =>   4
Atom  11H    basis set group =>   4
Atom  12H    basis set group =>   4
Atom  13H    basis set group =>   4
Atom  14H    basis set group =>   4
Atom  15H    basis set group =>   4
Atom  16H    basis set group =>   4
Atom  17H    basis set group =>   4
Atom  18H    basis set group =>   4
Atom  19H    basis set group =>   4
Atom  20H    basis set group =>   4
Atom  21H    basis set group =>   4
------------------------------------------------------------------------------
                           ORCA GTO INTEGRAL CALCULATION
------------------------------------------------------------------------------
------------------------------------------------------------------------------
                   ___                                                        
                  /   \      - P O W E R E D   B Y -                         
                 /     \                                                     
                 |  |  |   _    _      __       _____    __    __             
                 |  |  |  | |  | |    /  \     |  _  \  |  |  /  |          
                  \  \/   | |  | |   /    \    | | | |  |  | /  /          
                 / \  \   | |__| |  /  /\  \   | |_| |  |  |/  /          
                |  |  |   |  __  | /  /__\  \  |    /   |      \           
                |  |  |   | |  | | |   __   |  |    \   |  |\   \          
                \     /   | |  | | |  |  |  |  | |\  \  |  | \   \       
                 \___/    |_|  |_| |__|  |__|  |_| \__\ |__|  \__/        
                                                                              
                      - O R C A' S   B I G   F R I E N D -                    
                                      &                                       
                       - I N T E G R A L  F E E D E R -                       
                                                                              
 v1 FN, 2020, v2 2021                                                         
------------------------------------------------------------------------------


Reading SHARK input file a_freq.SHARKINP.tmp ... ok
----------------------
SHARK INTEGRAL PACKAGE
----------------------

Number of atoms                             ...     22
Number of basis functions                   ...    200
Number of shells                            ...     96
Maximum angular momentum                    ...      2
Integral batch strategy                     ... SHARK/LIBINT Hybrid
RI-J (if used) integral strategy            ... SPLIT-RIJ (Revised 2003 algorithm where possible)
Printlevel                                  ...      1
Contraction scheme used                     ... SEGMENTED contraction
Coulomb Range Separation                    ... NOT USED
Exchange Range Separation                   ... NOT USED
Finite Nucleus Model                        ... NOT USED
Auxiliary Coulomb fitting basis             ... NOT available
Auxiliary J/K fitting basis                 ... NOT available
Auxiliary Correlation fitting basis         ... NOT available
Auxiliary 'external' fitting basis          ... NOT available
Integral threshold                          ...     2.500000e-11
Primitive cut-off                           ...     2.500000e-12
Primitive pair pre-selection threshold      ...     2.500000e-12

Calculating pre-screening integrals         ... done (  0.1 sec) Dimension = 96
Organizing shell pair data                  ... done (  0.1 sec)
Shell pair information
Total number of shell pairs                 ...      4656
Shell pairs after pre-screening             ...      4242
Total number of primitive shell pairs       ...     16456
Primitive shell pairs kept                  ...     10623
          la=0 lb=0:   1368 shell pairs
          la=1 lb=0:   1575 shell pairs
          la=1 lb=1:    471 shell pairs
          la=2 lb=0:    489 shell pairs
          la=2 lb=1:    287 shell pairs
          la=2 lb=2:     52 shell pairs

Calculating one electron integrals          ... done (  0.0 sec)
Calculating Nuclear repulsion               ... done (  0.0 sec) ENN=    573.676990179529 Eh

SHARK setup successfully completed in   0.4 seconds

Maximum memory used throughout the entire GTOINT-calculation: 27.0 MB
-------------------------------------------------------------------------------
                                 ORCA SCF
-------------------------------------------------------------------------------

------------
SCF SETTINGS
------------
Hamiltonian:
 Ab initio Hamiltonian  Method          .... Hartree-Fock(GTOs)


General Settings:
 Integral files         IntName         .... a_freq
 Hartree-Fock type      HFTyp           .... RHF
 Total Charge           Charge          ....    0
 Multiplicity           Mult            ....    1
 Number of Electrons    NEL             ....   78
 Basis Dimension        Dim             ....  200
 Nuclear Repulsion      ENuc            ....    573.6769901795 Eh

Convergence Acceleration:
 DIIS                   CNVDIIS         .... on
   Start iteration      DIISMaxIt       ....    12
   Startup error        DIISStart       ....  0.200000
   # of expansion vecs  DIISMaxEq       ....     5
   Bias factor          DIISBfac        ....   1.050
   Max. coefficient     DIISMaxC        ....  10.000
 Trust-Rad. Augm. Hess. CNVTRAH         .... auto
   Auto Start mean grad. ratio tolernc. ....  1.125000
   Auto Start start iteration           ....    20
   Auto Start num. interpolation iter.  ....    10
   Max. Number of Micro iterations      ....    16
   Max. Number of Macro iterations      .... Maxiter - #DIIS iter
   Number of Davidson start vectors     ....     2
   Converg. threshold I  (grad. norm)   ....   1.000e-05
   Converg. threshold II (energy diff.) ....   1.000e-08
   Grad. Scal. Fac. for Micro threshold ....   0.100
   Minimum threshold for Micro iter.    ....   0.010
   NR start threshold (gradient norm)   ....   0.001
   Initial trust radius                 ....   0.400
   Minimum AH scaling param. (alpha)    ....   1.000
   Maximum AH scaling param. (alpha)    .... 1000.000
   Orbital update algorithm             .... Taylor
   White noise on init. David. guess    .... on
   Maximum white noise                  ....   0.010
   Quad. conv. algorithm                .... NR
 SOSCF                  CNVSOSCF        .... on
   Start iteration      SOSCFMaxIt      ....   150
   Startup grad/error   SOSCFStart      ....  0.003300
 Level Shifting         CNVShift        .... on
   Level shift para.    LevelShift      ....    0.2500
   Turn off err/grad.   ShiftErr        ....    0.0010
 Zerner damping         CNVZerner       .... off
 Static damping         CNVDamp         .... on
   Fraction old density DampFac         ....    0.7000
   Max. Damping (<1)    DampMax         ....    0.9800
   Min. Damping (>=0)   DampMin         ....    0.0000
   Turn off err/grad.   DampErr         ....    0.1000
 Fernandez-Rico         CNVRico         .... off

SCF Procedure:
 Maximum # iterations   MaxIter         ....   125
 SCF integral mode      SCFMode         .... Direct
   Integral package                     .... SHARK and LIBINT hybrid scheme
 Reset frequency        DirectResetFreq ....    20
 Integral Threshold     Thresh          ....  2.500e-11 Eh
 Primitive CutOff       TCut            ....  2.500e-12 Eh

Convergence Tolerance:
 Convergence Check Mode ConvCheckMode   .... Total+1el-Energy
 Convergence forced     ConvForced      .... 0
 Energy Change          TolE            ....  1.000e-08 Eh
 1-El. energy change                    ....  1.000e-05 Eh
 Orbital Gradient       TolG            ....  1.000e-05
 Orbital Rotation angle TolX            ....  1.000e-05
 DIIS Error             TolErr          ....  5.000e-07


Diagonalization of the overlap matrix:
Smallest eigenvalue                        ... 9.147e-04
Time for diagonalization                   ...    0.008 sec
Threshold for overlap eigenvalues          ... 1.000e-08
Number of eigenvalues below threshold      ... 0
Time for construction of square roots      ...    0.006 sec
Total time needed                          ...    0.015 sec

Time for model grid setup =    0.485 sec

------------------------------
INITIAL GUESS: MODEL POTENTIAL
------------------------------
Loading Hartree-Fock densities                     ... done
Calculating cut-offs                               ... done
Initializing the effective Hamiltonian             ... done
Setting up the integral package (SHARK)            ... done
Starting the Coulomb interaction                   ... done (   0.3 sec)
Reading the grid                                   ... done
Mapping shells                                     ... done
Starting the XC term evaluation                    ... done (   0.3 sec)
Transforming the Hamiltonian                       ... done (   0.0 sec)
Diagonalizing the Hamiltonian                      ... done (   0.0 sec)
Back transforming the eigenvectors                 ... done (   0.0 sec)
Now organizing SCF variables                       ... done
                      ------------------
                      INITIAL GUESS DONE (   1.1 sec)
                      ------------------
--------------
SCF ITERATIONS
--------------
ITER       Energy         Delta-E        Max-DP      RMS-DP      [F,P]     Damp
               ***  Starting incremental Fock matrix formation  ***
  0   -492.0010933736   0.000000000000 0.07096031  0.00217663  0.2608247 0.7000
  1   -492.1571054817  -0.156012108025 0.04978050  0.00161795  0.1583942 0.7000
                               ***Turning on DIIS***
  2   -492.2496926636  -0.092587181919 0.09749206  0.00343357  0.0888641 0.0000
  3   -491.6950480677   0.554644595879 0.03452668  0.00109797  0.0539956 0.0000
  4   -492.4544423564  -0.759394288738 0.01058279  0.00036283  0.0095341 0.0000
  5   -492.4433078797   0.011134476778 0.00735636  0.00019726  0.0066612 0.0000
                      *** Initiating the SOSCF procedure ***
                           *** Shutting down DIIS ***
                      *** Re-Reading the Fockian *** 
                      *** Removing any level shift *** 
ITER      Energy       Delta-E        Grad      Rot      Max-DP    RMS-DP
  6   -492.44259747   0.0007104114  0.002059  0.002059  0.003943  0.000110
               *** Restarting incremental Fock matrix formation ***
  7   -492.44191576   0.0006817071  0.000819  0.001472  0.002220  0.000055
  8   -492.44193593  -0.0000201719  0.000415  0.001649  0.002273  0.000057
  9   -492.44194372  -0.0000077872  0.000071  0.000067  0.000652  0.000009
 10   -492.44194400  -0.0000002805  0.000049  0.000041  0.000154  0.000004
 11   -492.44194412  -0.0000001218  0.000011  0.000018  0.000044  0.000001
 12   -492.44194413  -0.0000000106  0.000003  0.000008  0.000034  0.000001
                  ***Gradient check signals convergence***
              ***Rediagonalizing the Fockian in SOSCF/NRSCF***

               *****************************************************
               *                     SUCCESS                       *
               *           SCF CONVERGED AFTER  13 CYCLES          *
               *****************************************************


----------------
TOTAL SCF ENERGY
----------------

Total Energy       :         -492.44194413 Eh          -13400.02654 eV

Components:
Nuclear Repulsion  :          573.67699018 Eh           15610.54453 eV
Electronic Energy  :        -1066.11893431 Eh          -29010.57107 eV
One Electron Energy:        -1810.32336905 Eh          -49261.40327 eV
Two Electron Energy:          744.20443473 Eh           20250.83220 eV

Virial components:
Potential Energy   :         -982.65231364 Eh          -26739.32886 eV
Kinetic Energy     :          490.21036951 Eh           13339.30231 eV
Virial Ratio       :            2.00455228


---------------
SCF CONVERGENCE
---------------

  Last Energy change         ...   -1.7037e-09  Tolerance :   1.0000e-08
  Last MAX-Density change    ...    4.3164e-06  Tolerance :   1.0000e-07
  Last RMS-Density change    ...    1.4339e-07  Tolerance :   5.0000e-09
  Last Orbital Gradient      ...    1.3786e-06  Tolerance :   1.0000e-05
  Last Orbital Rotation      ...    1.8669e-06  Tolerance :   1.0000e-05

             **** THE GBW FILE WAS UPDATED (a_freq.gbw) ****
             **** DENSITY a_freq.scfp WAS UPDATED ****
             **** ENERGY FILE WAS UPDATED (a_freq.en.tmp) ****
             **** THE GBW FILE WAS UPDATED (a_freq.gbw) ****
             **** DENSITY a_freq.scfp WAS UPDATED ****
----------------
ORBITAL ENERGIES
----------------

  NO   OCC          E(Eh)            E(eV) 
   0   2.0000     -20.525621      -558.5305 
   1   2.0000     -20.506987      -558.0235 
   2   2.0000     -15.603637      -424.5966 
   3   2.0000     -15.570377      -423.6915 
   4   2.0000     -11.366446      -309.2967 
   5   2.0000     -11.352270      -308.9110 
   6   2.0000     -11.288988      -307.1890 
   7   2.0000     -11.253674      -306.2280 
   8   2.0000     -11.252510      -306.1964 
   9   2.0000     -11.203117      -304.8523 
  10   2.0000      -1.377494       -37.4835 
  11   2.0000      -1.356050       -36.9000 
  12   2.0000      -1.234171       -33.5835 
  13   2.0000      -1.201111       -32.6839 
  14   2.0000      -1.049155       -28.5490 
  15   2.0000      -0.988842       -26.9078 
  16   2.0000      -0.935376       -25.4529 
  17   2.0000      -0.852330       -23.1931 
  18   2.0000      -0.806714       -21.9518 
  19   2.0000      -0.757266       -20.6063 
  20   2.0000      -0.709898       -19.3173 
  21   2.0000      -0.707285       -19.2462 
  22   2.0000      -0.648208       -17.6386 
  23   2.0000      -0.645016       -17.5518 
  24   2.0000      -0.626199       -17.0397 
  25   2.0000      -0.613146       -16.6845 
  26   2.0000      -0.602671       -16.3995 
  27   2.0000      -0.592138       -16.1129 
  28   2.0000      -0.574898       -15.6438 
  29   2.0000      -0.562145       -15.2967 
  30   2.0000      -0.538332       -14.6488 
  31   2.0000      -0.524516       -14.2728 
  32   2.0000      -0.517748       -14.0886 
  33   2.0000      -0.501103       -13.6357 
  34   2.0000      -0.476018       -12.9531 
  35   2.0000      -0.436735       -11.8842 
  36   2.0000      -0.429858       -11.6970 
  37   2.0000      -0.390055       -10.6139 
  38   2.0000      -0.379180       -10.3180 
  39   0.0000       0.140299         3.8177 
  40   0.0000       0.166621         4.5340 
  41   0.0000       0.177336         4.8256 
  42   0.0000       0.194547         5.2939 
  43   0.0000       0.206469         5.6183 
  44   0.0000       0.222223         6.0470 
  45   0.0000       0.232543         6.3278 
  46   0.0000       0.253556         6.8996 
  47   0.0000       0.259193         7.0530 
  48   0.0000       0.264609         7.2004 
  49   0.0000       0.272732         7.4214 
  50   0.0000       0.289552         7.8791 
  51   0.0000       0.293488         7.9862 
  52   0.0000       0.312602         8.5063 
  53   0.0000       0.363271         9.8851 
  54   0.0000       0.371018        10.0959 
  55   0.0000       0.383726        10.4417 
  56   0.0000       0.398139        10.8339 
  57   0.0000       0.449698        12.2369 
  58   0.0000       0.461183        12.5494 
  59   0.0000       0.508838        13.8462 
  60   0.0000       0.527975        14.3669 
  61   0.0000       0.558746        15.2042 
  62   0.0000       0.610401        16.6099 
  63   0.0000       0.621731        16.9182 
  64   0.0000       0.633119        17.2280 
  65   0.0000       0.641307        17.4508 
  66   0.0000       0.645014        17.5517 
  67   0.0000       0.681048        18.5323 
  68   0.0000       0.687597        18.7105 
  69   0.0000       0.713741        19.4219 
  70   0.0000       0.733598        19.9622 
  71   0.0000       0.753426        20.5018 
  72   0.0000       0.790462        21.5096 
  73   0.0000       0.818275        22.2664 
  74   0.0000       0.827977        22.5304 
  75   0.0000       0.834855        22.7176 
  76   0.0000       0.852280        23.1917 
  77   0.0000       0.858193        23.3526 
  78   0.0000       0.867493        23.6057 
  79   0.0000       0.872001        23.7283 
  80   0.0000       0.887160        24.1408 
  81   0.0000       0.890233        24.2245 
  82   0.0000       0.900958        24.5163 
  83   0.0000       0.906859        24.6769 
  84   0.0000       0.917532        24.9673 
  85   0.0000       0.921383        25.0721 
  86   0.0000       0.926530        25.2122 
  87   0.0000       0.937616        25.5138 
  88   0.0000       0.950408        25.8619 
  89   0.0000       0.951245        25.8847 
  90   0.0000       0.965429        26.2707 
  91   0.0000       0.987384        26.8681 
  92   0.0000       1.001305        27.2469 
  93   0.0000       1.036856        28.2143 
  94   0.0000       1.045980        28.4626 
  95   0.0000       1.071854        29.1666 
  96   0.0000       1.090945        29.6861 
  97   0.0000       1.144910        31.1546 
  98   0.0000       1.169094        31.8127 
  99   0.0000       1.178754        32.0755 
 100   0.0000       1.233335        33.5608 
 101   0.0000       1.266542        34.4644 
 102   0.0000       1.299071        35.3495 
 103   0.0000       1.326260        36.0894 
 104   0.0000       1.339104        36.4389 
 105   0.0000       1.366502        37.1844 
 106   0.0000       1.393263        37.9126 
 107   0.0000       1.424969        38.7754 
 108   0.0000       1.428488        38.8711 
 109   0.0000       1.453364        39.5480 
 110   0.0000       1.495762        40.7018 
 111   0.0000       1.514741        41.2182 
 112   0.0000       1.569707        42.7139 
 113   0.0000       1.587376        43.1947 
 114   0.0000       1.623996        44.1912 
 115   0.0000       1.658033        45.1174 
 116   0.0000       1.663547        45.2674 
 117   0.0000       1.702430        46.3255 
 118   0.0000       1.742184        47.4072 
 119   0.0000       1.760926        47.9172 
 120   0.0000       1.774083        48.2753 
 121   0.0000       1.806162        49.1482 
 122   0.0000       1.822644        49.5967 
 123   0.0000       1.844693        50.1967 
 124   0.0000       1.848153        50.2908 
 125   0.0000       1.887344        51.3572 
 126   0.0000       1.903017        51.7837 
 127   0.0000       1.941126        52.8207 
 128   0.0000       1.982286        53.9408 
 129   0.0000       1.998607        54.3849 
 130   0.0000       2.015001        54.8310 
 131   0.0000       2.029145        55.2158 
 132   0.0000       2.047160        55.7061 
 133   0.0000       2.056325        55.9555 
 134   0.0000       2.059812        56.0503 
 135   0.0000       2.068162        56.2775 
 136   0.0000       2.087279        56.7978 
 137   0.0000       2.098177        57.0943 
 138   0.0000       2.120845        57.7111 
 139   0.0000       2.131089        57.9899 
 140   0.0000       2.151765        58.5525 
 141   0.0000       2.172216        59.1090 
 142   0.0000       2.181732        59.3680 
 143   0.0000       2.198095        59.8132 
 144   0.0000       2.211680        60.1829 
 145   0.0000       2.260672        61.5160 
 146   0.0000       2.267509        61.7021 
 147   0.0000       2.284462        62.1634 
 148   0.0000       2.325447        63.2786 
 149   0.0000       2.355812        64.1049 
 150   0.0000       2.368535        64.4511 
 151   0.0000       2.378010        64.7089 
 152   0.0000       2.396608        65.2150 
 153   0.0000       2.421521        65.8929 
 154   0.0000       2.446031        66.5599 
 155   0.0000       2.467977        67.1571 
 156   0.0000       2.472997        67.2937 
 157   0.0000       2.507495        68.2324 
 158   0.0000       2.559120        69.6372 
 159   0.0000       2.611763        71.0697 
 160   0.0000       2.652336        72.1737 
 161   0.0000       2.692315        73.2616 
 162   0.0000       2.711845        73.7930 
 163   0.0000       2.740413        74.5704 
 164   0.0000       2.758663        75.0670 
 165   0.0000       2.775056        75.5131 
 166   0.0000       2.785832        75.8063 
 167   0.0000       2.828343        76.9631 
 168   0.0000       2.891943        78.6938 
 169   0.0000       2.897663        78.8494 
 170   0.0000       2.952771        80.3490 
 171   0.0000       2.975433        80.9656 
 172   0.0000       2.986322        81.2620 
 173   0.0000       3.018569        82.1394 
 174   0.0000       3.055152        83.1349 
 175   0.0000       3.075589        83.6910 
 176   0.0000       3.104217        84.4700 
 177   0.0000       3.127010        85.0903 
 178   0.0000       3.156283        85.8868 
 179   0.0000       3.168246        86.2124 
 180   0.0000       3.189322        86.7859 
 181   0.0000       3.227495        87.8246 
 182   0.0000       3.232463        87.9598 
 183   0.0000       3.274581        89.1059 
 184   0.0000       3.292856        89.6032 
 185   0.0000       3.302897        89.8764 
 186   0.0000       3.356643        91.3389 
 187   0.0000       3.358893        91.4001 
 188   0.0000       3.375486        91.8516 
 189   0.0000       3.399566        92.5069 
 190   0.0000       3.474018        94.5328 
 191   0.0000       3.546190        96.4967 
 192   0.0000       3.569192        97.1227 
 193   0.0000       3.583313        97.5069 
 194   0.0000       3.634631        98.9033 
 195   0.0000       3.665955        99.7557 
 196   0.0000       3.917090       106.5894 
 197   0.0000       3.942218       107.2732 
 198   0.0000       4.073848       110.8551 
 199   0.0000       4.083363       111.1139 

                    ********************************
                    * MULLIKEN POPULATION ANALYSIS *
                    ********************************

-----------------------
MULLIKEN ATOMIC CHARGES
-----------------------
   0 C :   -0.016848
   1 C :    0.342552
   2 C :   -0.051146
   3 C :    0.068660
   4 C :    0.491438
   5 C :    0.157418
   6 N :   -0.462656
   7 N :   -0.445804
   8 O :   -0.454691
   9 O :   -0.443772
  10 H :    0.162895
  11 H :    0.150187
  12 H :    0.064557
  13 H :    0.040736
  14 H :    0.025198
  15 H :    0.052563
  16 H :   -0.013851
  17 H :    0.079923
  18 H :    0.026166
  19 H :    0.076364
  20 H :    0.078487
  21 H :    0.071623
Sum of atomic charges:    0.0000000

--------------------------------
MULLIKEN REDUCED ORBITAL CHARGES
--------------------------------
  0 C s       :     3.015369  s :     3.015369
      pz      :     0.970332  p :     2.967824
      px      :     1.061683
      py      :     0.935810
      dz2     :     0.004555  d :     0.033655
      dxz     :     0.007431
      dyz     :     0.009369
      dx2y2   :     0.010269
      dxy     :     0.002030
  1 C s       :     3.072715  s :     3.072715
      pz      :     0.872422  p :     2.446779
      px      :     0.684871
      py      :     0.889485
      dz2     :     0.020283  d :     0.137954
      dxz     :     0.012680
      dyz     :     0.057150
      dx2y2   :     0.017651
      dxy     :     0.030190
  2 C s       :     3.147848  s :     3.147848
      pz      :     0.842298  p :     2.838900
      px      :     1.000184
      py      :     0.996418
      dz2     :     0.013340  d :     0.064398
      dxz     :     0.008303
      dyz     :     0.016658
      dx2y2   :     0.008956
      dxy     :     0.017141
  3 C s       :     2.985682  s :     2.985682
      pz      :     1.045248  p :     2.906338
      px      :     0.873253
      py      :     0.987838
      dz2     :     0.008406  d :     0.039319
      dxz     :     0.003328
      dyz     :     0.009295
      dx2y2   :     0.005989
      dxy     :     0.012301
  4 C s       :     3.003192  s :     3.003192
      pz      :     0.682534  p :     2.369882
      px      :     0.785291
      py      :     0.902057
      dz2     :     0.010236  d :     0.135487
      dxz     :     0.020788
      dyz     :     0.018697
      dx2y2   :     0.050182
      dxy     :     0.035584
  5 C s       :     2.999542  s :     2.999542
      pz      :     1.029570  p :     2.790579
      px      :     0.903502
      py      :     0.857507
      dz2     :     0.009752  d :     0.052460
      dxz     :     0.005986
      dyz     :     0.013216
      dx2y2   :     0.007904
      dxy     :     0.015603
  6 N s       :     3.442732  s :     3.442732
      pz      :     1.166468  p :     3.996658
      px      :     1.712152
      py      :     1.118039
      dz2     :     0.007572  d :     0.023265
      dxz     :     0.003272
      dyz     :     0.007863
      dx2y2   :     0.002247
      dxy     :     0.002311
  7 N s       :     3.427527  s :     3.427527
      pz      :     1.664854  p :     3.993392
      px      :     1.135453
      py      :     1.193085
      dz2     :     0.002041  d :     0.024885
      dxz     :     0.003360
      dyz     :     0.003614
      dx2y2   :     0.008956
      dxy     :     0.006913
  8 O s       :     3.814461  s :     3.814461
      pz      :     1.477625  p :     4.620125
      px      :     1.718655
      py      :     1.423845
      dz2     :     0.002533  d :     0.020106
      dxz     :     0.001609
      dyz     :     0.005253
      dx2y2   :     0.004941
      dxy     :     0.005770
  9 O s       :     3.802764  s :     3.802764
      pz      :     1.814424  p :     4.620925
      px      :     1.489348
      py      :     1.317152
      dz2     :     0.002656  d :     0.020083
      dxz     :     0.000091
      dyz     :     0.003842
      dx2y2   :     0.007062
      dxy     :     0.006432
 10 H s       :     0.791384  s :     0.791384
      pz      :     0.004300  p :     0.045721
      px      :     0.012794
      py      :     0.028627
 11 H s       :     0.803396  s :     0.803396
      pz      :     0.015930  p :     0.046417
      px      :     0.007696
      py      :     0.022791
 12 H s       :     0.909876  s :     0.909876
      pz      :     0.010027  p :     0.025567
      px      :     0.005697
      py      :     0.009843
 13 H s       :     0.934699  s :     0.934699
      pz      :     0.016121  p :     0.024565
      px      :     0.003247
      py      :     0.005197
 14 H s       :     0.950184  s :     0.950184
      pz      :     0.005723  p :     0.024618
      px      :     0.014946
      py      :     0.003949
 15 H s       :     0.921736  s :     0.921736
      pz      :     0.015052  p :     0.025701
      px      :     0.004200
      py      :     0.006449
 16 H s       :     0.989503  s :     0.989503
      pz      :     0.005364  p :     0.024348
      px      :     0.010534
      py      :     0.008450
 17 H s       :     0.893103  s :     0.893103
      pz      :     0.009492  p :     0.026974
      px      :     0.003185
      py      :     0.014296
 18 H s       :     0.948251  s :     0.948251
      pz      :     0.004122  p :     0.025583
      px      :     0.004055
      py      :     0.017406
 19 H s       :     0.897122  s :     0.897122
      pz      :     0.006579  p :     0.026514
      px      :     0.015676
      py      :     0.004258
 20 H s       :     0.894992  s :     0.894992
      pz      :     0.010213  p :     0.026522
      px      :     0.011673
      py      :     0.004636
 21 H s       :     0.904736  s :     0.904736
      pz      :     0.009668  p :     0.023641
      px      :     0.003676
      py      :     0.010297


                     *******************************
                     * LOEWDIN POPULATION ANALYSIS *
                     *******************************

----------------------
LOEWDIN ATOMIC CHARGES
----------------------
   0 C :   -0.048348
   1 C :    0.173967
   2 C :    0.030309
   3 C :   -0.036199
   4 C :    0.195775
   5 C :    0.066894
   6 N :   -0.095155
   7 N :   -0.097015
   8 O :   -0.291944
   9 O :   -0.301211
  10 H :    0.079527
  11 H :    0.070719
  12 H :    0.029629
  13 H :    0.013780
  14 H :    0.011962
  15 H :    0.027377
  16 H :   -0.010446
  17 H :    0.035483
  18 H :    0.017656
  19 H :    0.046187
  20 H :    0.046365
  21 H :    0.034688

-------------------------------
LOEWDIN REDUCED ORBITAL CHARGES
-------------------------------
  0 C s       :     2.836463  s :     2.836463
      pz      :     1.035632  p :     3.133627
      px      :     1.073140
      py      :     1.024856
      dz2     :     0.011122  d :     0.078258
      dxz     :     0.017736
      dyz     :     0.021385
      dx2y2   :     0.024049
      dxy     :     0.003966
  1 C s       :     2.841106  s :     2.841106
      pz      :     0.974634  p :     2.704420
      px      :     0.705973
      py      :     1.023813
      dz2     :     0.042902  d :     0.280507
      dxz     :     0.023456
      dyz     :     0.122046
      dx2y2   :     0.038220
      dxy     :     0.053884
  2 C s       :     2.838073  s :     2.838073
      pz      :     0.921952  p :     2.994736
      px      :     1.063356
      py      :     1.009428
      dz2     :     0.027374  d :     0.136882
      dxz     :     0.016672
      dyz     :     0.037008
      dx2y2   :     0.018797
      dxy     :     0.037031
  3 C s       :     2.837337  s :     2.837337
      pz      :     1.076276  p :     3.110314
      px      :     0.986493
      py      :     1.047544
      dz2     :     0.018126  d :     0.088549
      dxz     :     0.008013
      dyz     :     0.020288
      dx2y2   :     0.013658
      dxy     :     0.028465
  4 C s       :     2.844062  s :     2.844062
      pz      :     0.720174  p :     2.684239
      px      :     0.950354
      py      :     1.013711
      dz2     :     0.019302  d :     0.275923
      dxz     :     0.039494
      dyz     :     0.033232
      dx2y2   :     0.106570
      dxy     :     0.077325
  5 C s       :     2.820740  s :     2.820740
      pz      :     1.068779  p :     2.996907
      px      :     0.979330
      py      :     0.948798
      dz2     :     0.020667  d :     0.115459
      dxz     :     0.012990
      dyz     :     0.030877
      dx2y2   :     0.017596
      dxy     :     0.033329
  6 N s       :     3.069614  s :     3.069614
      pz      :     1.184200  p :     3.973078
      px      :     1.618711
      py      :     1.170167
      dz2     :     0.018189  d :     0.052463
      dxz     :     0.006035
      dyz     :     0.017611
      dx2y2   :     0.005966
      dxy     :     0.004662
  7 N s       :     3.067268  s :     3.067268
      pz      :     1.595032  p :     3.975105
      px      :     1.168098
      py      :     1.211975
      dz2     :     0.003807  d :     0.054642
      dxz     :     0.006087
      dyz     :     0.007182
      dx2y2   :     0.020759
      dxy     :     0.016807
  8 O s       :     3.552587  s :     3.552587
      pz      :     1.470491  p :     4.708500
      px      :     1.723059
      py      :     1.514950
      dz2     :     0.004027  d :     0.030856
      dxz     :     0.002092
      dyz     :     0.006494
      dx2y2   :     0.008183
      dxy     :     0.010060
  9 O s       :     3.552905  s :     3.552905
      pz      :     1.791256  p :     4.717130
      px      :     1.480257
      py      :     1.445617
      dz2     :     0.004892  d :     0.031176
      dxz     :     0.000120
      dyz     :     0.005855
      dx2y2   :     0.013354
      dxy     :     0.006955
 10 H s       :     0.789516  s :     0.789516
      pz      :     0.017569  p :     0.130957
      px      :     0.045063
      py      :     0.068324
 11 H s       :     0.799149  s :     0.799149
      pz      :     0.049926  p :     0.130132
      px      :     0.023306
      py      :     0.056899
 12 H s       :     0.904327  s :     0.904327
      pz      :     0.025526  p :     0.066044
      px      :     0.015556
      py      :     0.024961
 13 H s       :     0.921261  s :     0.921261
      pz      :     0.038048  p :     0.064959
      px      :     0.010698
      py      :     0.016213
 14 H s       :     0.924418  s :     0.924418
      pz      :     0.015593  p :     0.063620
      px      :     0.035347
      py      :     0.012680
 15 H s       :     0.905045  s :     0.905045
      pz      :     0.036236  p :     0.067578
      px      :     0.013701
      py      :     0.017640
 16 H s       :     0.944958  s :     0.944958
      pz      :     0.015456  p :     0.065488
      px      :     0.027665
      py      :     0.022367
 17 H s       :     0.892709  s :     0.892709
      pz      :     0.024393  p :     0.071808
      px      :     0.011930
      py      :     0.035484
 18 H s       :     0.916223  s :     0.916223
      pz      :     0.012937  p :     0.066121
      px      :     0.012818
      py      :     0.040365
 19 H s       :     0.886231  s :     0.886231
      pz      :     0.018610  p :     0.067582
      px      :     0.036851
      py      :     0.012121
 20 H s       :     0.885909  s :     0.885909
      pz      :     0.026425  p :     0.067726
      px      :     0.028325
      py      :     0.012976
 21 H s       :     0.897227  s :     0.897227
      pz      :     0.025146  p :     0.068085
      px      :     0.015209
      py      :     0.027730


                      *****************************
                      * MAYER POPULATION ANALYSIS *
                      *****************************

  NA   - Mulliken gross atomic population
  ZA   - Total nuclear charge
  QA   - Mulliken gross atomic charge
  VA   - Mayer's total valence
  BVA  - Mayer's bonded valence
  FA   - Mayer's free valence

  ATOM       NA         ZA         QA         VA         BVA        FA
  0 C      6.0168     6.0000    -0.0168     3.8713     3.8713     0.0000
  1 C      5.6574     6.0000     0.3426     4.0529     4.0529     0.0000
  2 C      6.0511     6.0000    -0.0511     3.8152     3.8152     0.0000
  3 C      5.9313     6.0000     0.0687     3.8983     3.8983    -0.0000
  4 C      5.5086     6.0000     0.4914     3.9498     3.9498     0.0000
  5 C      5.8426     6.0000     0.1574     3.8810     3.8810     0.0000
  6 N      7.4627     7.0000    -0.4627     2.9062     2.9062    -0.0000
  7 N      7.4458     7.0000    -0.4458     3.0068     3.0068     0.0000
  8 O      8.4547     8.0000    -0.4547     2.0109     2.0109    -0.0000
  9 O      8.4438     8.0000    -0.4438     2.0203     2.0203    -0.0000
 10 H      0.8371     1.0000     0.1629     0.9735     0.9735    -0.0000
 11 H      0.8498     1.0000     0.1502     0.9816     0.9816    -0.0000
 12 H      0.9354     1.0000     0.0646     1.0000     1.0000     0.0000
 13 H      0.9593     1.0000     0.0407     0.9825     0.9825     0.0000
 14 H      0.9748     1.0000     0.0252     0.9826     0.9826     0.0000
 15 H      0.9474     1.0000     0.0526     0.9931     0.9931    -0.0000
 16 H      1.0139     1.0000    -0.0139     0.9782     0.9782    -0.0000
 17 H      0.9201     1.0000     0.0799     1.0116     1.0116    -0.0000
 18 H      0.9738     1.0000     0.0262     0.9877     0.9877    -0.0000
 19 H      0.9236     1.0000     0.0764     0.9945     0.9945     0.0000
 20 H      0.9215     1.0000     0.0785     0.9926     0.9926     0.0000
 21 H      0.9284     1.0000     0.0716     0.9810     0.9810    -0.0000

  Mayer bond orders larger than 0.100000
B(  0-C ,  1-C ) :   0.9856 B(  0-C , 18-H ) :   0.9858 B(  0-C , 19-H ) :   0.9707 
B(  0-C , 20-H ) :   0.9700 B(  1-C ,  6-N ) :   1.1025 B(  1-C ,  9-O ) :   1.9203 
B(  2-C ,  3-C ) :   1.0689 B(  2-C ,  4-C ) :   0.9027 B(  2-C ,  6-N ) :   0.8693 
B(  2-C , 21-H ) :   0.9650 B(  3-C , 15-H ) :   0.9745 B(  3-C , 16-H ) :   0.9744 
B(  3-C , 17-H ) :   0.9635 B(  4-C ,  7-N ) :   1.1682 B(  4-C ,  8-O ) :   1.9088 
B(  5-C ,  7-N ) :   0.9067 B(  5-C , 12-H ) :   0.9852 B(  5-C , 13-H ) :   0.9917 
B(  5-C , 14-H ) :   0.9915 B(  6-N , 10-H ) :   0.9419 B(  7-N , 11-H ) :   0.9408 


-------
TIMINGS
-------

Total SCF time: 0 days 0 hours 1 min 34 sec 

Total time                  ....      94.732 sec
Sum of individual times     ....      94.246 sec  ( 99.5%)

Fock matrix formation       ....      92.949 sec  ( 98.1%)
Diagonalization             ....       0.065 sec  (  0.1%)
Density matrix formation    ....       0.009 sec  (  0.0%)
Population analysis         ....       0.015 sec  (  0.0%)
Initial guess               ....       0.632 sec  (  0.7%)
Orbital Transformation      ....       0.000 sec  (  0.0%)
Orbital Orthonormalization  ....       0.000 sec  (  0.0%)
DIIS solution               ....       0.044 sec  (  0.0%)
SOSCF solution              ....       0.045 sec  (  0.0%)

Maximum memory used throughout the entire SCF-calculation: 251.0 MB

-------------------------   --------------------
FINAL SINGLE POINT ENERGY      -492.441944134844
-------------------------   --------------------

------------------------------------------------------------------------------
                         ORCA SCF GRADIENT CALCULATION
------------------------------------------------------------------------------

Gradient of the Hartree-Fock SCF energy:
Hartree-Fock type                ... RHF
Number of operators              ...    1
Number of atoms                  ...   22
Basis set dimensions             ...  200
Integral neglect threshold       ... 2.5e-11
Integral primitive cutoff        ... 2.5e-12
SHARK Integral package           ... ON

Nuc. rep. gradient       (SHARK) ... done (  0.0 sec)
HCore & Overlap gradient (SHARK) ... done (  0.5 sec)
Two-Electron gradient    (SHARK) ... done ( 28.5 sec)

------------------
CARTESIAN GRADIENT
------------------

   1   C   :    0.000797760   -0.005628629   -0.001142634
   2   C   :   -0.003435862    0.034278114    0.005395927
   3   C   :    0.046774750    0.037481782   -0.030629778
   4   C   :    0.056322770   -0.025354799   -0.012850790
   5   C   :   -0.055699548    0.029449136    0.049666880
   6   C   :   -0.002308608   -0.001395526   -0.008085515
   7   N   :   -0.003950547    0.013986244   -0.004721967
   8   N   :    0.032679867   -0.004065686   -0.004487967
   9   O   :   -0.051279004   -0.055157776   -0.014237967
  10   O   :    0.003809447   -0.055454133    0.008422050
  11   H   :   -0.005191907    0.013515462    0.000513861
  12   H   :    0.002874013    0.011393026    0.007155554
  13   H   :   -0.001130750   -0.005011654   -0.003292094
  14   H   :   -0.004691468    0.006351858    0.003426653
  15   H   :    0.001018737    0.003475128   -0.000157881
  16   H   :   -0.001588792   -0.005015345   -0.006804097
  17   H   :    0.001677215   -0.002965518    0.001557143
  18   H   :    0.003516733   -0.012734250    0.004701847
  19   H   :   -0.000380018    0.002490307   -0.002128466
  20   H   :    0.004407141    0.001658734   -0.000801538
  21   H   :   -0.004233698    0.001181737    0.000129356
  22   H   :   -0.019988231    0.017521788    0.008371422

Difference to translation invariance:
           :   -0.0000000000    0.0000000000   -0.0000000000

Difference to rotation invariance:
           :    0.0000006944    0.0000003434    0.0000002690

Norm of the cartesian gradient     ...    0.1681701665
RMS gradient                       ...    0.0207003165
MAX gradient                       ...    0.0563227704

-------
TIMINGS
-------

Total SCF gradient time            ...       29.146 sec

One electron gradient       ....       0.473 sec  (  1.6%)
Two electron gradient       ....      28.546 sec  ( 97.9%)

Maximum memory used throughout the entire SCFGRAD-calculation: 41.3 MB
------------------------------------------------------------------------------
                         ORCA GEOMETRY RELAXATION STEP
------------------------------------------------------------------------------

Reading the OPT-File                    .... done
Getting information on internals        .... done
Copying old internal coords+grads       .... done
Making the new internal coordinates     .... (new redundants).... done
Validating the new internal coordinates .... (new redundants).... done
Calculating the B-matrix                .... done
Calculating the G,G- and P matrices     .... done
Transforming gradient to internals      .... done
Projecting the internal gradient        .... done
Number of atoms                         ....  22
Number of internal coordinates          ....  98
Current Energy                          ....  -492.441944135 Eh
Current gradient norm                   ....     0.168170167 Eh/bohr
Maximum allowed component of the step   ....  0.300
Current trust radius                    ....  0.300
Evaluating the initial hessian          ....  (Almloef) done
Projecting the Hessian                  .... done
Forming the augmented Hessian           .... done
Diagonalizing the augmented Hessian     .... done
Last element of RFO vector              ....  0.863312901
Lowest eigenvalues of augmented Hessian:
 -0.099942032  0.009491019  0.011612895  0.012382654  0.014894660
Length of the computed step             ....  0.584572564
Warning: the length of the step is outside the trust region - taking restricted step instead
The input lambda is                     ....    -0.099942
   iter:   1  x=   -0.187716  g=    2.867870 f(x)=     0.251725
   iter:   2  x=   -0.281865  g=    1.049713 f(x)=     0.098829
   iter:   3  x=   -0.342212  g=    0.501672 f(x)=     0.030275
   iter:   4  x=   -0.357210  g=    0.344360 f(x)=     0.005165
   iter:   5  x=   -0.357890  g=    0.316220 f(x)=     0.000215
   iter:   6  x=   -0.357892  g=    0.315021 f(x)=     0.000000
   iter:   7  x=   -0.357892  g=    0.315019 f(x)=     0.000000
   iter:   8  x=   -0.357892  g=    0.315019 f(x)=     0.000000
The output lambda is                    ....    -0.357892 (8 iterations)
The final length of the internal step   ....  0.300000000
Converting the step to cartesian space:
 Initial RMS(Int)=    0.0303045763
Transforming coordinates:
 Iter   0:  RMS(Cart)=    0.1396495216 RMS(Int)=    0.0298733322
 Iter   1:  RMS(Cart)=    0.0070669474 RMS(Int)=    0.0038231449
 Iter   2:  RMS(Cart)=    0.0008936014 RMS(Int)=    0.0002548048
 Iter   3:  RMS(Cart)=    0.0001106072 RMS(Int)=    0.0000546934
 Iter   4:  RMS(Cart)=    0.0000142215 RMS(Int)=    0.0000049258
 Iter   5:  RMS(Cart)=    0.0000016165 RMS(Int)=    0.0000008271
 Iter   6:  RMS(Cart)=    0.0000002225 RMS(Int)=    0.0000000939
 Iter   7:  RMS(Cart)=    0.0000000250 RMS(Int)=    0.0000000131
done
Storing new coordinates                 .... done

                                .--------------------.
          ----------------------|Geometry convergence|-------------------------
          Item                value                   Tolerance       Converged
          ---------------------------------------------------------------------
          RMS gradient        0.0198062705            0.0001000000      NO
          MAX gradient        0.1002739198            0.0003000000      NO
          RMS step            0.0303045763            0.0020000000      NO
          MAX step            0.1720239803            0.0040000000      NO
          ........................................................
          Max(Bonds)      0.0286      Max(Angles)    9.86
          Max(Dihed)        5.05      Max(Improp)    0.00
          ---------------------------------------------------------------------

The optimization has not yet converged - more geometry cycles are needed


    ---------------------------------------------------------------------------
                         Redundant Internal Coordinates
                            (Angstroem and degrees)

        Definition                    Value    dE/dq     Step     New-Value
    ----------------------------------------------------------------------------
     1. B(C   1,C   0)                1.5054 -0.003271  0.0023    1.5077   
     2. B(C   3,C   2)                1.5250 -0.031228  0.0224    1.5474   
     3. B(C   4,C   2)                1.5483 -0.030160  0.0226    1.5709   
     4. B(N   6,C   2)                1.4695  0.005897 -0.0040    1.4654   
     5. B(N   6,C   1)                1.3773  0.019057 -0.0107    1.3666   
     6. B(N   7,C   5)                1.4394 -0.006527  0.0042    1.4436   
     7. B(N   7,C   4)                1.3840  0.029613 -0.0169    1.3671   
     8. B(O   8,C   4)                1.2289  0.074009 -0.0286    1.2003   
     9. B(O   9,C   1)                1.2239  0.056054 -0.0214    1.2025   
    10. B(H  10,N   6)                1.0116  0.014422 -0.0097    1.0020   
    11. B(H  11,N   7)                1.0121  0.013598 -0.0091    1.0030   
    12. B(H  12,C   5)                1.0930  0.005905 -0.0044    1.0886   
    13. B(H  13,C   5)                1.0933  0.000133 -0.0001    1.0932   
    14. B(H  14,C   5)                1.0924  0.002048 -0.0015    1.0909   
    15. B(H  15,C   3)                1.0954  0.008315 -0.0062    1.0892   
    16. B(H  16,C   3)                1.0952 -0.002574  0.0019    1.0972   
    17. B(H  17,C   3)                1.0947  0.012936 -0.0096    1.0850   
    18. B(H  18,C   0)                1.0932  0.002960 -0.0022    1.0910   
    19. B(H  19,C   0)                1.0936  0.003347 -0.0025    1.0911   
    20. B(H  20,C   0)                1.0931  0.002895 -0.0021    1.0909   
    21. B(H  21,C   2)                1.0983  0.008644 -0.0065    1.0918   
    22. A(C   1,C   0,H  19)          108.87  0.000519   -0.06    108.81   
    23. A(C   1,C   0,H  18)          111.96 -0.003189    0.30    112.26   
    24. A(H  18,C   0,H  20)          108.71 -0.000110    0.05    108.76   
    25. A(C   1,C   0,H  20)          109.07  0.000255   -0.04    109.04   
    26. A(H  18,C   0,H  19)          108.42 -0.000255    0.06    108.48   
    27. A(H  19,C   0,H  20)          109.79  0.002894   -0.33    109.46   
    28. A(N   6,C   1,O   9)          123.62  0.010451   -0.75    122.87   
    29. A(C   0,C   1,O   9)          121.94  0.000621   -0.07    121.88   
    30. A(C   0,C   1,N   6)          114.38 -0.011088    0.82    115.20   
    31. A(C   3,C   2,N   6)          112.75  0.039923   -3.00    109.75   
    32. A(N   6,C   2,H  21)          104.43 -0.028704    1.68    106.10   
    33. A(C   4,C   2,H  21)          125.11  0.034878   -3.64    121.47   
    34. A(C   4,C   2,N   6)          114.32  0.030957   -2.61    111.71   
    35. A(C   3,C   2,C   4)           91.96 -0.100274    9.86    101.81   
    36. A(C   3,C   2,H  21)          107.61  0.025256   -2.04    105.57   
    37. A(H  15,C   3,H  17)          107.26 -0.001269    0.20    107.45   
    38. A(C   2,C   3,H  17)          111.77 -0.003663    0.34    112.11   
    39. A(H  15,C   3,H  16)          107.98  0.000366   -0.10    107.88   
    40. A(C   2,C   3,H  16)          110.84  0.002830   -0.28    110.56   
    41. A(C   2,C   3,H  15)          110.92  0.000656   -0.05    110.87   
    42. A(H  16,C   3,H  17)          107.90  0.001084   -0.11    107.79   
    43. A(C   2,C   4,N   7)          113.63  0.004303   -0.33    113.30   
    44. A(N   7,C   4,O   8)          122.78  0.020200   -1.43    121.36   
    45. A(C   2,C   4,O   8)          122.86 -0.025100    1.85    124.71   
    46. A(H  13,C   5,H  14)          109.72  0.004989   -0.36    109.35   
    47. A(H  12,C   5,H  14)          109.99  0.001429   -0.18    109.81   
    48. A(N   7,C   5,H  14)          108.43 -0.002932    0.25    108.68   
    49. A(H  12,C   5,H  13)          109.46  0.003910   -0.33    109.13   
    50. A(N   7,C   5,H  13)          108.55 -0.013347    1.15    109.70   
    51. A(N   7,C   5,H  12)          110.66  0.005748   -0.50    110.17   
    52. A(C   2,N   6,H  10)          116.08  0.004494   -0.35    115.73   
    53. A(C   1,N   6,H  10)          117.55  0.004798   -0.36    117.19   
    54. A(C   1,N   6,C   2)          121.94 -0.010118    0.79    122.73   
    55. A(C   5,N   7,H  11)          118.06  0.002913   -0.24    117.82   
    56. A(C   4,N   7,H  11)          115.11 -0.000870    0.08    115.18   
    57. A(C   4,N   7,C   5)          120.87 -0.002042    0.16    121.03   
    58. D(N   6,C   1,C   0,H  20)    121.33 -0.001881    0.21    121.53   
    59. D(O   9,C   1,C   0,H  19)     58.60  0.001946   -0.22     58.38   
    60. D(O   9,C   1,C   0,H  20)    -61.19 -0.002022    0.24    -60.95   
    61. D(N   6,C   1,C   0,H  18)      0.97  0.000117   -0.02      0.95   
    62. D(O   9,C   1,C   0,H  18)    178.46 -0.000025    0.01    178.47   
    63. D(N   6,C   1,C   0,H  19)   -118.89  0.002087   -0.25   -119.14   
    64. D(H  17,C   3,C   2,C   4)     48.91 -0.004913    0.86     49.77   
    65. D(H  16,C   3,C   2,H  21)    -62.76 -0.001769    0.43    -62.33   
    66. D(H  15,C   3,C   2,C   4)    -70.74 -0.001306    0.42    -70.32   
    67. D(H  15,C   3,C   2,N   6)    171.80  0.003133   -0.74    171.06   
    68. D(H  16,C   3,C   2,N   6)     51.86  0.000372   -0.40     51.45   
    69. D(H  17,C   3,C   2,N   6)    -68.56 -0.000474   -0.29    -68.85   
    70. D(H  15,C   3,C   2,H  21)     57.18  0.000992    0.09     57.28   
    71. D(H  16,C   3,C   2,C   4)    169.32 -0.004067    0.75    170.07   
    72. D(H  17,C   3,C   2,H  21)    176.83 -0.002615    0.54    177.37   
    73. D(O   8,C   4,C   2,H  21)    -99.81  0.020465   -2.68   -102.49   
    74. D(O   8,C   4,C   2,N   6)    129.50 -0.012953    2.25    131.76   
    75. D(O   8,C   4,C   2,C   3)     13.39 -0.013860    1.19     14.58   
    76. D(N   7,C   4,C   2,H  21)     70.69  0.018832   -2.27     68.41   
    77. D(N   7,C   4,C   2,N   6)    -60.00 -0.014586    2.66    -57.34   
    78. D(N   7,C   4,C   2,C   3)   -176.11 -0.015493    1.59   -174.52   
    79. D(H  10,N   6,C   2,C   4)    163.09  0.045068   -5.05    158.03   
    80. D(H  10,N   6,C   2,C   3)    -93.60 -0.038326    3.90    -89.71   
    81. D(C   1,N   6,C   2,H  21)    178.69 -0.006277    1.09    179.78   
    82. D(C   1,N   6,C   2,C   4)    -41.14  0.044297   -4.94    -46.08   
    83. D(C   1,N   6,C   2,C   3)     62.17 -0.039096    4.01     66.18   
    84. D(H  10,N   6,C   1,O   9)    166.45 -0.001172    0.17    166.62   
    85. D(H  10,N   6,C   1,C   0)    -16.11 -0.001609    0.23    -15.89   
    86. D(C   2,N   6,C   1,O   9)     11.01 -0.000251    0.05     11.06   
    87. D(H  10,N   6,C   2,H  21)     22.92 -0.005506    0.97     23.89   
    88. D(C   2,N   6,C   1,C   0)   -171.55 -0.000688    0.10   -171.45   
    89. D(H  11,N   7,C   5,H  14)    -46.46  0.001999   -0.22    -46.68   
    90. D(H  11,N   7,C   5,H  13)     72.68 -0.001285    0.14     72.82   
    91. D(C   4,N   7,C   5,H  14)    162.04  0.002199   -0.22    161.81   
    92. D(C   4,N   7,C   5,H  13)    -78.82 -0.001085    0.13    -78.69   
    93. D(C   4,N   7,C   5,H  12)     41.32 -0.001211    0.15     41.47   
    94. D(H  11,N   7,C   4,O   8)   -166.03 -0.002467    0.24   -165.78   
    95. D(H  11,N   7,C   5,H  12)   -167.18 -0.001411    0.15   -167.03   
    96. D(H  11,N   7,C   4,C   2)     23.47  0.004052   -0.52     22.95   
    97. D(C   5,N   7,C   4,O   8)    -13.73 -0.001631    0.16    -13.58   
    98. D(C   5,N   7,C   4,C   2)    175.76  0.004888   -0.60    175.16   
    ----------------------------------------------------------------------------

         *************************************************************
         *                GEOMETRY OPTIMIZATION CYCLE   2            *
         *************************************************************
---------------------------------
CARTESIAN COORDINATES (ANGSTROEM)
---------------------------------
  C      1.465298    2.263408    3.984211
  C      1.289658    1.355092    2.793719
  C      0.776700    1.284435    0.362147
  C     -0.659526    0.721829    0.484838
  C      1.623322   -0.025275    0.173570
  C      3.908711   -0.896389    0.096582
  N      1.139322    1.991232    1.593588
  N      2.971657    0.200138    0.156873
  O      1.166460   -1.100838   -0.100549
  O      1.327608    0.157647    2.897474
  H      0.913175    2.967032    1.617833
  H      3.268684    1.045419    0.607718
  H      3.557210   -1.652396   -0.603435
  H      4.013358   -1.346534    1.087244
  H      4.876010   -0.511823   -0.229621
  H     -1.006067    0.330739   -0.470798
  H     -1.356093    1.509037    0.799273
  H     -0.721936   -0.084416    1.208306
  H      1.429505    3.318321    3.708104
  H      2.433773    2.058679    4.443117
  H      0.671739    2.062424    4.705321
  H      0.729242    2.047140   -0.417616

----------------------------
CARTESIAN COORDINATES (A.U.)
----------------------------
  NO LB      ZA    FRAG     MASS         X           Y           Z
   0 C     6.0000    0    12.011    2.769011    4.277221    7.529068
   1 C     6.0000    0    12.011    2.437100    2.560753    5.279363
   2 C     6.0000    0    12.011    1.467750    2.427231    0.684359
   3 C     6.0000    0    12.011   -1.246324    1.364059    0.916211
   4 C     6.0000    0    12.011    3.067634   -0.047763    0.328000
   5 C     6.0000    0    12.011    7.386394   -1.693929    0.182513
   6 N     7.0000    0    14.007    2.153007    3.762884    3.011445
   7 N     7.0000    0    14.007    5.615618    0.378206    0.296447
   8 O     8.0000    0    15.999    2.204290   -2.080282   -0.190009
   9 O     8.0000    0    15.999    2.508815    0.297910    5.475432
  10 H     1.0000    0     1.008    1.725651    5.606878    3.057262
  11 H     1.0000    0     1.008    6.176918    1.975556    1.148420
  12 H     1.0000    0     1.008    6.722153   -3.122576   -1.140327
  13 H     1.0000    0     1.008    7.584148   -2.544580    2.054594
[...]
     52      -0.017981   0.258704  -0.046379  -0.100670   0.002676   0.001625
     53       0.020266  -0.291550   0.052421   0.116277  -0.003076  -0.001718
     54       0.001944   0.058215   0.330853   0.000803   0.003534   0.389075
     55       0.002661   0.079768   0.453599   0.001037   0.005005   0.557617
     56      -0.000976  -0.030760  -0.175136  -0.000431  -0.001920  -0.208593
     57       0.001305   0.031547   0.177811  -0.000149   0.000031   0.042633
     58      -0.001475  -0.034119  -0.192513   0.000339  -0.000151  -0.060880
     59       0.002151   0.054610   0.309205   0.000104   0.000322   0.101339
     60      -0.003112  -0.108752  -0.605913  -0.000094   0.005990   0.609735
     61       0.001127   0.040135   0.224579   0.000117  -0.002400  -0.239935
     62       0.000967   0.035156   0.197834   0.000229  -0.001982  -0.200527
     63      -0.000586   0.004509  -0.001031   0.034082  -0.000110  -0.000088
     64      -0.013722   0.118309  -0.021789   0.620014  -0.002388  -0.000316
     65       0.016607  -0.145119   0.025738  -0.749196   0.002823   0.000116
                 60         61         62         63         64         65    
      0      -0.000309   0.000046  -0.031746   0.001184  -0.000207   0.000012
      1      -0.000329  -0.000292   0.063142  -0.002799  -0.000126   0.000044
      2       0.000430   0.000287  -0.062008   0.002734   0.000130  -0.000030
      3      -0.000082  -0.000030  -0.000118  -0.000176   0.000123   0.000350
      4       0.000561   0.000028   0.001878  -0.000469  -0.000010   0.000319
      5      -0.000239  -0.000032  -0.000520   0.000027  -0.001846  -0.000163
      6      -0.000483   0.000078  -0.000001  -0.000237   0.000887  -0.000239
      7       0.003208   0.000098  -0.000144  -0.003091   0.000896  -0.000111
      8      -0.003010  -0.000094   0.000390   0.004534   0.001447   0.000101
      9      -0.009021   0.000231   0.000541   0.013215   0.000052  -0.000006
     10       0.089274  -0.000482  -0.000019  -0.008069   0.000072   0.000041
     11       0.008483   0.001322   0.004040   0.092914   0.000150  -0.000018
     12       0.001058  -0.000493  -0.000041   0.000232  -0.000040   0.000875
     13       0.000968  -0.001187   0.000057   0.000378   0.000280  -0.000273
     14       0.000517  -0.000425  -0.000019   0.000154   0.000202  -0.000537
     15       0.000064  -0.045594  -0.000159   0.000638   0.000041  -0.001159
     16       0.000071  -0.038712  -0.000074   0.000499   0.000011   0.001191
     17      -0.000532  -0.072354  -0.000303   0.001118  -0.000002   0.000049
     18       0.000147   0.000001  -0.000080  -0.000280   0.004562   0.000089
     19      -0.000383  -0.000003  -0.000274  -0.000051  -0.073860   0.000774
     20      -0.000033   0.000028   0.000298  -0.000455   0.006148  -0.000201
     21      -0.000136   0.000913   0.000037  -0.000066  -0.000313  -0.019686
     22      -0.000154   0.000550  -0.000006  -0.000023  -0.000771  -0.056018
     23      -0.000045   0.000949   0.000031  -0.000019  -0.000592  -0.043613
     24      -0.000612  -0.000206  -0.000014  -0.000444  -0.000013   0.000788
     25      -0.000373   0.000598  -0.000029   0.000036   0.000010   0.000777
     26      -0.000196   0.000361  -0.000013  -0.000135   0.000021   0.000492
     27      -0.000267   0.000023   0.000113   0.000298   0.000035  -0.000017
     28      -0.000317  -0.000011  -0.000754   0.000224   0.000851  -0.000226
     29      -0.000147   0.000015   0.000328   0.000155  -0.000373  -0.000010
     30      -0.001392   0.000014   0.000578   0.000192  -0.073200   0.002456
     31      -0.000102  -0.000054   0.001239  -0.000453   0.991798  -0.013912
     32      -0.000686   0.000003   0.002204   0.000383  -0.071920   0.000563
     33      -0.000686  -0.006076  -0.000255  -0.000369   0.004191   0.256993
     34      -0.000227  -0.002103   0.000010  -0.000393   0.010262   0.751632
     35      -0.000583  -0.007820  -0.000321  -0.000021   0.008279   0.602705
     36       0.001110   0.181547   0.000653  -0.002635  -0.000065  -0.001148
     37       0.002019   0.384841   0.001303  -0.005681   0.000243   0.005756
     38       0.003947   0.785317   0.002726  -0.011565   0.000242   0.006518
     39       0.000051  -0.009504  -0.000004   0.000150  -0.000047  -0.001218
     40      -0.002225  -0.107444  -0.001000   0.002114   0.000082   0.001717
     41       0.002287   0.094667   0.000891  -0.001912  -0.000058  -0.001010
     42      -0.001417   0.372791   0.001211  -0.005048  -0.000113   0.005631
     43      -0.000778   0.181516   0.000573  -0.002476  -0.000094   0.000615
     44      -0.000053  -0.023127  -0.000092   0.000309  -0.000013   0.000360
     45      -0.163125  -0.002312  -0.009947  -0.211224   0.000230  -0.000481
     46      -0.242066  -0.003981  -0.015722  -0.337967   0.000141  -0.000246
     47      -0.471604  -0.007114  -0.028594  -0.617356   0.000243  -0.000449
     48       0.331487  -0.001134   0.001602   0.006239  -0.000284   0.000253
     49      -0.432467   0.001642  -0.002015  -0.007963  -0.000348  -0.000191
     50      -0.097549   0.000485  -0.000087   0.005541  -0.000232  -0.000023
     51      -0.047982   0.000919   0.001947   0.050811  -0.000254   0.000141
     52      -0.391106   0.007894   0.017596   0.439586  -0.000177   0.000116
     53       0.468636  -0.009138  -0.019967  -0.499452  -0.000075   0.000054
     54       0.002227   0.001246  -0.203280   0.009997   0.000841  -0.000271
     55       0.003159   0.001793  -0.276508   0.013673   0.002608  -0.000993
     56      -0.001294  -0.000663   0.104261  -0.005059  -0.001680  -0.000068
     57      -0.001514  -0.001623   0.393623  -0.016859   0.000044   0.000002
     58       0.001678   0.001693  -0.418141   0.017888   0.000257  -0.000039
     59      -0.002540  -0.002748   0.697318  -0.029909  -0.000138  -0.000103
     60       0.003329  -0.000157   0.188235  -0.007281   0.000199  -0.000389
     61      -0.001430   0.000031  -0.065541   0.002459   0.000204   0.000024
     62      -0.001242   0.000093  -0.069396   0.002651   0.000131   0.000188
     63      -0.003754  -0.000226   0.000296   0.006134  -0.001136   0.000099
     64      -0.035175   0.000383   0.001906   0.037587   0.005042   0.000006
     65       0.039900   0.000022  -0.002419  -0.046556  -0.007355  -0.000420


-----------
IR SPECTRUM
-----------

 Mode   freq       eps      Int      T**2         TX        TY        TZ
       cm**-1   L/(mol*cm) km/mol    a.u.
----------------------------------------------------------------------------
  6:     55.42   0.000400    2.02  0.002254  (-0.019422  0.032196 -0.028978)
  7:     68.39   0.000393    1.98  0.001791  ( 0.026741  0.013262 -0.030007)
  8:     78.10   0.000327    1.65  0.001305  ( 0.030794 -0.018733  0.002397)
  9:     84.10   0.002324   11.75  0.008624  ( 0.069149  0.018638 -0.059120)
 10:     86.20   0.000667    3.37  0.002414  (-0.045999 -0.016832  0.003801)
 11:    166.85   0.000428    2.16  0.000801  ( 0.002356 -0.006323  0.027490)
 12:    194.69   0.000605    3.06  0.000970  (-0.006963 -0.015158 -0.026292)
 13:    222.56   0.000191    0.97  0.000268  (-0.006031  0.015106 -0.001873)
 14:    254.68   0.000176    0.89  0.000215  (-0.006277 -0.010541  0.008056)
 15:    337.40   0.001752    8.85  0.001620  ( 0.038623 -0.009507  0.006161)
 16:    367.70   0.001888    9.54  0.001602  (-0.030042 -0.009257  0.024781)
 17:    395.18   0.002243   11.34  0.001771  (-0.038070  0.008041  0.016040)
 18:    483.24   0.005584   28.22  0.003606  ( 0.011837 -0.023150  0.054129)
 19:    518.19   0.006335   32.01  0.003815  ( 0.054601 -0.006384 -0.028158)
 20:    531.76   0.009800   49.53  0.005751  ( 0.036977  0.015890 -0.064276)
 21:    562.80   0.017410   87.98  0.009654  (-0.067134 -0.066606  0.026650)
 22:    636.14   0.009825   49.65  0.004820  (-0.056187 -0.016614  0.037240)
 23:    680.37   0.000787    3.98  0.000361  ( 0.012176 -0.013728  0.004920)
 24:    737.93   0.000842    4.25  0.000356  (-0.017076  0.002293 -0.007686)
 25:    847.35   0.003759   19.00  0.001385  (-0.013230 -0.014143  0.031772)
 26:    914.23   0.001812    9.16  0.000619  (-0.016832  0.015547  0.009671)
 27:    988.54   0.000119    0.60  0.000038  (-0.004806  0.002203 -0.003115)
 28:   1016.19   0.000564    2.85  0.000173  (-0.004891 -0.007124 -0.009921)
 29:   1085.23   0.004005   20.24  0.001152  (-0.016814 -0.011136  0.027292)
 30:   1136.32   0.000860    4.34  0.000236  (-0.013655 -0.006520 -0.002668)
 31:   1149.17   0.002807   14.19  0.000762  (-0.024280  0.008127  0.010329)
 32:   1174.55   0.000277    1.40  0.000073  (-0.006025  0.005815  0.001838)
 33:   1240.99   0.003998   20.20  0.001005  (-0.030000  0.002415  0.009976)
 34:   1242.67   0.000784    3.96  0.000197  (-0.010831  0.008771  0.001585)
 35:   1257.33   0.003343   16.89  0.000830  (-0.006129  0.018178  0.021485)
 36:   1288.37   0.000148    0.75  0.000036  (-0.005331  0.002263  0.001490)
 37:   1363.95   0.018905   95.54  0.004325  (-0.052667  0.029160  0.026483)
 38:   1382.22   0.022763  115.03  0.005139  ( 0.022074  0.006314  0.067912)
 39:   1456.40   0.003258   16.46  0.000698  (-0.016645  0.006276 -0.019535)
 40:   1483.46   0.008384   42.37  0.001764  ( 0.013835  0.005070  0.039327)
 41:   1515.45   0.007690   38.86  0.001584  (-0.003414  0.014628  0.036851)
 42:   1528.67   0.004696   23.73  0.000959  (-0.019565 -0.014614 -0.019032)
 43:   1565.57   0.003566   18.02  0.000711  ( 0.001009 -0.022680  0.013977)
 44:   1567.26   0.001426    7.21  0.000284  ( 0.012072 -0.004207  0.010976)
 45:   1585.79   0.001922    9.71  0.000378  ( 0.001811  0.014236 -0.013123)
 46:   1586.78   0.001473    7.44  0.000290  (-0.014313  0.002180 -0.008947)
 47:   1592.03   0.005055   25.55  0.000991  ( 0.028237  0.000005 -0.013912)
 48:   1604.52   0.001061    5.36  0.000206  ( 0.000668 -0.010593  0.009677)
 49:   1616.27   0.001248    6.30  0.000241  ( 0.006946 -0.013400  0.003613)
 50:   1681.18   0.052115  263.37  0.009674  ( 0.019328 -0.002398  0.096407)
 51:   1706.09   0.061618  311.39  0.011271  ( 0.105425 -0.012176  0.002850)
 52:   1972.83   0.051491  260.21  0.008145  ( 0.051371  0.053548  0.051366)
 53:   1989.90   0.072359  365.67  0.011348  (-0.007382 -0.105443  0.013223)
 54:   3186.62   0.011846   59.86  0.001160  ( 0.027668 -0.019400  0.004261)
 55:   3192.16   0.005281   26.69  0.000516  (-0.020922  0.006972  0.005471)
 56:   3192.51   0.001516    7.66  0.000148  ( 0.003517 -0.010955 -0.003978)
 57:   3209.73   0.003794   19.17  0.000369  (-0.000096 -0.009184  0.016868)
 58:   3268.70   0.007352   37.16  0.000702  ( 0.017510  0.013383 -0.014704)
 59:   3275.02   0.002492   12.59  0.000237  (-0.012693 -0.008088  0.003306)
 60:   3288.46   0.002860   14.46  0.000271  (-0.004148  0.015692  0.002831)
 61:   3317.60   0.002121   10.72  0.000200  (-0.006880 -0.005623 -0.010981)
 62:   3323.81   0.000954    4.82  0.000090  (-0.001314  0.006488 -0.006762)
 63:   3324.66   0.001596    8.06  0.000150  ( 0.002008 -0.001076  0.012025)
 64:   3872.28   0.009154   46.26  0.000738  (-0.002456  0.026143 -0.006945)
 65:   3910.62   0.010121   51.15  0.000808  ( 0.008927  0.020302  0.017772)

* The epsilon (eps) is given for a Dirac delta lineshape.
** The dipole moment derivative (T) already includes vibrational overlap.

The first frequency considered to be a vibration is 6
The total number of vibrations considered is 60


--------------------------
THERMOCHEMISTRY AT 298.15K
--------------------------

Temperature         ... 298.15 K
Pressure            ... 1.00 atm
Total Mass          ... 144.17 AMU

Throughout the following assumptions are being made:
  (1) The electronic state is orbitally nondegenerate
  (2) There are no thermally accessible electronically excited states
  (3) Hindered rotations indicated by low frequency modes are not
      treated as such but are treated as vibrations and this may
      cause some error
  (4) All equations used are the standard statistical mechanics
      equations for an ideal gas
  (5) All vibrations are strictly harmonic

freq.      55.42  E(vib)   ...       0.52 
freq.      68.39  E(vib)   ...       0.50 
freq.      78.10  E(vib)   ...       0.49 
freq.      84.10  E(vib)   ...       0.48 
freq.      86.20  E(vib)   ...       0.48 
freq.     166.85  E(vib)   ...       0.39 
freq.     194.69  E(vib)   ...       0.36 
freq.     222.56  E(vib)   ...       0.33 
freq.     254.68  E(vib)   ...       0.30 
freq.     337.40  E(vib)   ...       0.24 
freq.     367.70  E(vib)   ...       0.21 
freq.     395.18  E(vib)   ...       0.20 
freq.     483.24  E(vib)   ...       0.15 
freq.     518.19  E(vib)   ...       0.13 
freq.     531.76  E(vib)   ...       0.13 
freq.     562.80  E(vib)   ...       0.11 
freq.     636.14  E(vib)   ...       0.09 
freq.     680.37  E(vib)   ...       0.08 
freq.     737.93  E(vib)   ...       0.06 
freq.     847.35  E(vib)   ...       0.04 
freq.     914.23  E(vib)   ...       0.03 
freq.     988.54  E(vib)   ...       0.02 
freq.    1016.19  E(vib)   ...       0.02 
freq.    1085.23  E(vib)   ...       0.02 
freq.    1136.32  E(vib)   ...       0.01 
freq.    1149.17  E(vib)   ...       0.01 
freq.    1174.55  E(vib)   ...       0.01 
freq.    1240.99  E(vib)   ...       0.01 
freq.    1242.67  E(vib)   ...       0.01 
freq.    1257.33  E(vib)   ...       0.01 
freq.    1288.37  E(vib)   ...       0.01 
freq.    1363.95  E(vib)   ...       0.01 
freq.    1382.22  E(vib)   ...       0.01 
freq.    1456.40  E(vib)   ...       0.00 
freq.    1483.46  E(vib)   ...       0.00 
freq.    1515.45  E(vib)   ...       0.00 
freq.    1528.67  E(vib)   ...       0.00 
freq.    1565.57  E(vib)   ...       0.00 
freq.    1567.26  E(vib)   ...       0.00 
freq.    1585.79  E(vib)   ...       0.00 
freq.    1586.78  E(vib)   ...       0.00 
freq.    1592.03  E(vib)   ...       0.00 
freq.    1604.52  E(vib)   ...       0.00 
freq.    1616.27  E(vib)   ...       0.00 
freq.    1681.18  E(vib)   ...       0.00 
freq.    1706.09  E(vib)   ...       0.00 
freq.    1972.83  E(vib)   ...       0.00 
freq.    1989.90  E(vib)   ...       0.00 
freq.    3186.62  E(vib)   ...       0.00 
freq.    3192.16  E(vib)   ...       0.00 
freq.    3192.51  E(vib)   ...       0.00 
freq.    3209.73  E(vib)   ...       0.00 
freq.    3268.70  E(vib)   ...       0.00 
freq.    3275.02  E(vib)   ...       0.00 
freq.    3288.46  E(vib)   ...       0.00 
freq.    3317.60  E(vib)   ...       0.00 
freq.    3323.81  E(vib)   ...       0.00 
freq.    3324.66  E(vib)   ...       0.00 
freq.    3872.28  E(vib)   ...       0.00 
freq.    3910.62  E(vib)   ...       0.00 

------------
INNER ENERGY
------------

The inner energy is: U= E(el) + E(ZPE) + E(vib) + E(rot) + E(trans)
    E(el)   - is the total energy from the electronic structure calculation
              = E(kin-el) + E(nuc-el) + E(el-el) + E(nuc-nuc)
    E(ZPE)  - the the zero temperature vibrational energy from the frequency calculation
    E(vib)  - the the finite temperature correction to E(ZPE) due to population
              of excited vibrational states
    E(rot)  - is the rotational thermal energy
    E(trans)- is the translational thermal energy

Summary of contributions to the inner energy U:
Electronic energy                ...   -492.49291293 Eh
Zero point energy                ...      0.19902793 Eh     124.89 kcal/mol
Thermal vibrational correction   ...      0.00873476 Eh       5.48 kcal/mol
Thermal rotational correction    ...      0.00141627 Eh       0.89 kcal/mol
Thermal translational correction ...      0.00141627 Eh       0.89 kcal/mol
-----------------------------------------------------------------------
Total thermal energy                   -492.28231770 Eh


Summary of corrections to the electronic energy:
(perhaps to be used in another calculation)
Total thermal correction                  0.01156731 Eh       7.26 kcal/mol
Non-thermal (ZPE) correction              0.19902793 Eh     124.89 kcal/mol
-----------------------------------------------------------------------
Total correction                          0.21059523 Eh     132.15 kcal/mol


--------
ENTHALPY
--------

The enthalpy is H = U + kB*T
                kB is Boltzmann's constant
Total free energy                 ...   -492.28231770 Eh 
Thermal Enthalpy correction       ...      0.00094421 Eh       0.59 kcal/mol
-----------------------------------------------------------------------
Total Enthalpy                    ...   -492.28137349 Eh


Note: Only C1 symmetry has been detected, increase convergence thresholds 
      if your molecule has a higher symmetry. Symmetry factor of 1.0 is   
      used for the rotational entropy correction. 
 

Note: Rotational entropy computed according to Herzberg 
Infrared and Raman Spectra, Chapter V,1, Van Nostrand Reinhold, 1945 
Point Group:  C1, Symmetry Number:   1  
Rotational constants in cm-1:     0.062925     0.032667     0.025514 

Vibrational entropy computed according to the QRRHO of S. Grimme
Chem.Eur.J. 2012 18 9955


-------
ENTROPY
-------

The entropy contributions are T*S = T*(S(el)+S(vib)+S(rot)+S(trans))
     S(el)   - electronic entropy
     S(vib)  - vibrational entropy
     S(rot)  - rotational entropy
     S(trans)- translational entropy
The entropies will be listed as multiplied by the temperature to get
units of energy

Electronic entropy                ...      0.00000000 Eh      0.00 kcal/mol
Vibrational entropy               ...      0.01559300 Eh      9.78 kcal/mol
Rotational entropy                ...      0.01416362 Eh      8.89 kcal/mol
Translational entropy             ...      0.01938939 Eh     12.17 kcal/mol
-----------------------------------------------------------------------
Final entropy term                ...      0.04914600 Eh     30.84 kcal/mol

In case the symmetry of your molecule has not been determined correctly
or in case you have a reason to use a different symmetry number we print 
out the resulting rotational entropy values for sn=1,12 :
 --------------------------------------------------------
|  sn= 1 | S(rot)=       0.01416362 Eh      8.89 kcal/mol|
|  sn= 2 | S(rot)=       0.01350916 Eh      8.48 kcal/mol|
|  sn= 3 | S(rot)=       0.01312633 Eh      8.24 kcal/mol|
|  sn= 4 | S(rot)=       0.01285470 Eh      8.07 kcal/mol|
|  sn= 5 | S(rot)=       0.01264401 Eh      7.93 kcal/mol|
|  sn= 6 | S(rot)=       0.01247187 Eh      7.83 kcal/mol|
|  sn= 7 | S(rot)=       0.01232632 Eh      7.73 kcal/mol|
|  sn= 8 | S(rot)=       0.01220025 Eh      7.66 kcal/mol|
|  sn= 9 | S(rot)=       0.01208904 Eh      7.59 kcal/mol|
|  sn=10 | S(rot)=       0.01198956 Eh      7.52 kcal/mol|
|  sn=11 | S(rot)=       0.01189957 Eh      7.47 kcal/mol|
|  sn=12 | S(rot)=       0.01181741 Eh      7.42 kcal/mol|
 --------------------------------------------------------


-------------------
GIBBS FREE ENERGY
-------------------

The Gibbs free energy is G = H - T*S

Total enthalpy                    ...   -492.28137349 Eh 
Total entropy correction          ...     -0.04914600 Eh    -30.84 kcal/mol
-----------------------------------------------------------------------
Final Gibbs free energy         ...   -492.33051949 Eh

For completeness - the Gibbs free energy minus the electronic energy
G-E(el)                           ...      0.16239344 Eh    101.90 kcal/mol


Timings for individual modules:

Sum of individual times         ...     3315.789 sec (=  55.263 min)
GTO integral calculation        ...        7.957 sec (=   0.133 min)   0.2 %
SCF iterations                  ...     1149.614 sec (=  19.160 min)  34.7 %
SCF Gradient evaluation         ...      602.147 sec (=  10.036 min)  18.2 %
Geometry relaxation             ...        0.999 sec (=   0.017 min)   0.0 %
Analytical frequency calculation...     1555.073 sec (=  25.918 min)  46.9 %
                             ****ORCA TERMINATED NORMALLY****
TOTAL RUN TIME: 0 days 0 hours 55 minutes 17 seconds 696 msec
