
                                 *****************
                                 * O   R   C   A *
                                 *****************

                                            #,                                       
                                            ###                                      
                                            ####                                     
                                            #####                                    
                                            ######                                   
                                           ########,                                 
                                     ,,################,,,,,                         
                               ,,#################################,,                 
                          ,,##########################################,,             
                       ,#########################################, ''#####,          
                    ,#############################################,,   '####,        
                  ,##################################################,,,,####,       
                ,###########''''           ''''###############################       
              ,#####''   ,,,,##########,,,,          '''####'''          '####       
            ,##' ,,,,###########################,,,                        '##       
           ' ,,###''''                  '''############,,,                           
         ,,##''                                '''############,,,,        ,,,,,,###''
      ,#''                                            '''#######################'''  
     '                                                          ''''####''''         
             ,#######,   #######,   ,#######,      ##                                
            ,#'     '#,  ##    ##  ,#'     '#,    #''#        ######   ,####,        
            ##       ##  ##   ,#'  ##            #'  '#       #        #'  '#        
            ##       ##  #######   ##           ,######,      #####,   #    #        
            '#,     ,#'  ##    ##  '#,     ,#' ,#      #,         ##   #,  ,#        
             '#######'   ##     ##  '#######'  #'      '#     #####' # '####'        



                  #######################################################
                  #                        -***-                        #
                  #          Department of theory and spectroscopy      #
                  #    Directorship and core code : Frank Neese         #
                  #        Max Planck Institute fuer Kohlenforschung    #
                  #                Kaiser Wilhelm Platz 1               #
                  #                 D-45470 Muelheim/Ruhr               #
                  #                      Germany                        #
                  #                                                     #
                  #                  All rights reserved                #
                  #                        -***-                        #
                  #######################################################


                         Program Version 5.0.4 -  RELEASE  -


 With contributions from (in alphabetic order):
   Daniel Aravena         : Magnetic Suceptibility
   Michael Atanasov       : Ab Initio Ligand Field Theory (pilot matlab implementation)
   Alexander A. Auer      : GIAO ZORA, VPT2 properties, NMR spectrum
   Ute Becker             : Parallelization
   Giovanni Bistoni       : ED, misc. LED, open-shell LED, HFLD
   Martin Brehm           : Molecular dynamics
   Dmytro Bykov           : SCF Hessian
   Vijay G. Chilkuri      : MRCI spin determinant printing, contributions to CSF-ICE
   Dipayan Datta          : RHF DLPNO-CCSD density
   Achintya Kumar Dutta   : EOM-CC, STEOM-CC
   Dmitry Ganyushin       : Spin-Orbit,Spin-Spin,Magnetic field MRCI
   Miquel Garcia          : C-PCM and meta-GGA Hessian, CC/C-PCM, Gaussian charge scheme
   Yang Guo               : DLPNO-NEVPT2, F12-NEVPT2, CIM, IAO-localization
   Andreas Hansen         : Spin unrestricted coupled pair/coupled cluster methods
   Benjamin Helmich-Paris : MC-RPA, TRAH-SCF, COSX integrals
   Lee Huntington         : MR-EOM, pCC
   Robert Izsak           : Overlap fitted RIJCOSX, COSX-SCS-MP3, EOM
   Marcus Kettner         : VPT2
   Christian Kollmar      : KDIIS, OOCD, Brueckner-CCSD(T), CCSD density, CASPT2, CASPT2-K
   Simone Kossmann        : Meta GGA functionals, TD-DFT gradient, OOMP2, MP2 Hessian
   Martin Krupicka        : Initial AUTO-CI
   Lucas Lang             : DCDCAS
   Marvin Lechner         : AUTO-CI (C++ implementation), FIC-MRCC
   Dagmar Lenk            : GEPOL surface, SMD
   Dimitrios Liakos       : Extrapolation schemes; Compound Job, initial MDCI parallelization
   Dimitrios Manganas     : Further ROCIS development; embedding schemes
   Dimitrios Pantazis     : SARC Basis sets
   Anastasios Papadopoulos: AUTO-CI, single reference methods and gradients
   Taras Petrenko         : DFT Hessian,TD-DFT gradient, ASA, ECA, R-Raman, ABS, FL, XAS/XES, NRVS
   Peter Pinski           : DLPNO-MP2, DLPNO-MP2 Gradient
   Christoph Reimann      : Effective Core Potentials
   Marius Retegan         : Local ZFS, SOC
   Christoph Riplinger    : Optimizer, TS searches, QM/MM, DLPNO-CCSD(T), (RO)-DLPNO pert. Triples
   Tobias Risthaus        : Range-separated hybrids, TD-DFT gradient, RPA, STAB
   Michael Roemelt        : Original ROCIS implementation
   Masaaki Saitow         : Open-shell DLPNO-CCSD energy and density
   Barbara Sandhoefer     : DKH picture change effects
   Avijit Sen             : IP-ROCIS
   Kantharuban Sivalingam : CASSCF convergence, NEVPT2, FIC-MRCI
   Bernardo de Souza      : ESD, SOC TD-DFT
   Georgi Stoychev        : AutoAux, RI-MP2 NMR, DLPNO-MP2 response
   Willem Van den Heuvel  : Paramagnetic NMR
   Boris Wezisla          : Elementary symmetry handling
   Frank Wennmohs         : Technical directorship


 We gratefully acknowledge several colleagues who have allowed us to
 interface, adapt or use parts of their codes:
   Stefan Grimme, W. Hujo, H. Kruse, P. Pracht,  : VdW corrections, initial TS optimization,
                  C. Bannwarth, S. Ehlert          DFT functionals, gCP, sTDA/sTD-DF
   Ed Valeev, F. Pavosevic, A. Kumar             : LibInt (2-el integral package), F12 methods
   Garnet Chan, S. Sharma, J. Yang, R. Olivares  : DMRG
   Ulf Ekstrom                                   : XCFun DFT Library
   Mihaly Kallay                                 : mrcc  (arbitrary order and MRCC methods)
   Jiri Pittner, Ondrej Demel                    : Mk-CCSD
   Frank Weinhold                                : gennbo (NPA and NBO analysis)
   Christopher J. Cramer and Donald G. Truhlar   : smd solvation model
   Lars Goerigk                                  : TD-DFT with DH, B97 family of functionals
   V. Asgeirsson, H. Jonsson                     : NEB implementation
   FAccTs GmbH                                   : IRC, NEB, NEB-TS, DLPNO-Multilevel, CI-OPT
                                                   MM, QMMM, 2- and 3-layer-ONIOM, Crystal-QMMM,
                                                   LR-CPCM, SF, NACMEs, symmetry and pop. for TD-DFT,
                                                   nearIR, NL-DFT gradient (VV10), updates on ESD,
                                                   ML-optimized integration grids
   S Lehtola, MJT Oliveira, MAL Marques          : LibXC Library
   Liviu Ungur et al                             : ANISO software


 Your calculation uses the libint2 library for the computation of 2-el integrals
 For citations please refer to: http://libint.valeyev.net

 Your ORCA version has been built with support for libXC version: 5.1.0
 For citations please refer to: https://tddft.org/programs/libxc/

 This ORCA versions uses:
   CBLAS   interface :  Fast vector & matrix operations
   LAPACKE interface :  Fast linear algebra routines
   SCALAPACK package :  Parallel linear algebra routines
   Shared memory     :  Shared parallel matrices
   BLAS/LAPACK       :  OpenBLAS 0.3.15  USE64BITINT DYNAMIC_ARCH NO_AFFINITY Haswell SINGLE_THREADED
        Core in use  :  Haswell
   Copyright (c) 2011-2014, The OpenBLAS Project


================================================================================

----- Orbital basis set information -----
Your calculation utilizes the basis: def2-SVP
   F. Weigend and R. Ahlrichs, Phys. Chem. Chem. Phys. 7, 3297 (2005).

================================================================================
                                        WARNINGS
                       Please study these warnings very carefully!
================================================================================


WARNING: Geometry Optimization
  ===> : Switching off AutoStart
         For restart on a previous wavefunction, please use MOREAD

INFO   : the flag for use of the SHARK integral package has been found!

================================================================================
                                       INPUT FILE
================================================================================
NAME = 168_neg79.inp
|  1> # avogadro generated ORCA input file 
|  2> # Basic Mode
|  3> # 
|  4> ! RHF OPT FREQ def2-SVP 
|  5> 
|  6> * xyz 0 1
|  7>    C       -0.90833        2.95392       -1.88316
|  8>    C        0.17142        3.00797       -0.83413
|  9>    C        1.13651        1.77737        1.10722
| 10>    C        1.42223        3.03309        1.92739
| 11>    C        2.38660        1.10667        0.48387
| 12>    C        4.72576        0.43164        0.86338
| 13>    N        0.11461        1.97506        0.07647
| 14>    N        3.51317        1.08942        1.28022
| 15>    O        2.33888        0.51744       -0.59686
| 16>    O        0.97740        3.93013       -0.78722
| 17>    H       -0.31379        1.12256       -0.26182
| 18>    H        3.47317        1.45378        2.22236
| 19>    H        4.85781        0.50871       -0.21914
| 20>    H        4.66599       -0.62113        1.15198
| 21>    H        5.56823        0.90385        1.37482
| 22>    H        1.90877        2.77715        2.87520
| 23>    H        0.49640        3.56711        2.16972
| 24>    H        2.09262        3.72270        1.40381
| 25>    H       -1.34870        1.95635       -1.96269
| 26>    H       -0.48167        3.21913       -2.85432
| 27>    H       -1.69343        3.66791       -1.61891
| 28>    H        0.70485        1.02841        1.78362
| 29> *
| 30> 
| 31> 
| 32> 
| 33>                          ****END OF INPUT****
================================================================================

                       *****************************
                       * Geometry Optimization Run *
                       *****************************

Geometry optimization settings:
Update method            Update   .... BFGS
Choice of coordinates    CoordSys .... Z-matrix Internals
Initial Hessian          InHess   .... Almoef's Model

Convergence Tolerances:
Energy Change            TolE     ....  5.0000e-06 Eh
Max. Gradient            TolMAXG  ....  3.0000e-04 Eh/bohr
RMS Gradient             TolRMSG  ....  1.0000e-04 Eh/bohr
Max. Displacement        TolMAXD  ....  4.0000e-03 bohr
RMS Displacement         TolRMSD  ....  2.0000e-03 bohr
Strict Convergence                ....  False
------------------------------------------------------------------------------
                        ORCA OPTIMIZATION COORDINATE SETUP
------------------------------------------------------------------------------

The optimization will be done in new redundant internal coordinates
Making redundant internal coordinates   ...  (new redundants) done
Evaluating the initial hessian          ...  (Almloef) done
Evaluating the coordinates              ...  done
Calculating the B-matrix                .... done
Calculating the G-matrix                .... done
Diagonalizing the G-matrix              .... done
Small eigenvalue found = 1.124e-02
Small eigenvalue found = 2.096e-02
The first mode is                       ....   38
The number of degrees of freedom        ....   60

    -----------------------------------------------------------------
                    Redundant Internal Coordinates


    -----------------------------------------------------------------
         Definition                    Initial Value    Approx d2E/dq
    -----------------------------------------------------------------
      1. B(C   1,C   0)                  1.5064         0.407406   
      2. B(C   3,C   2)                  1.5268         0.377979   
      3. B(C   4,C   2)                  1.5496         0.347676   
      4. B(N   6,C   2)                  1.4649         0.425055   
      5. B(N   6,C   1)                  1.3782         0.584476   
      6. B(N   7,C   5)                  1.4411         0.463798   
      7. B(N   7,C   4)                  1.3797         0.581132   
      8. B(O   8,C   4)                  1.2318         1.000458   
      9. B(O   9,C   1)                  1.2256         1.023547   
     10. B(H  10,N   6)                  1.0123         0.429089   
     11. B(H  11,N   7)                  1.0109         0.431227   
     12. B(H  12,C   5)                  1.0933         0.355808   
     13. B(H  13,C   5)                  1.0932         0.355831   
     14. B(H  14,C   5)                  1.0928         0.356357   
     15. B(H  15,C   3)                  1.0957         0.352631   
     16. B(H  16,C   3)                  1.0959         0.352340   
     17. B(H  17,C   3)                  1.0950         0.353489   
     18. B(H  18,C   0)                  1.0933         0.355706   
     19. B(H  19,C   0)                  1.0934         0.355628   
     20. B(H  20,C   0)                  1.0936         0.355351   
     21. B(H  21,C   2)                  1.0976         0.350149   
     22. A(C   1,C   0,H  19)          109.2766         0.328304   
     23. A(C   1,C   0,H  18)          111.8446         0.328316   
     24. A(H  18,C   0,H  20)          108.9117         0.289675   
     25. A(C   1,C   0,H  20)          108.8370         0.328262   
     26. A(H  18,C   0,H  19)          108.2925         0.289711   
     27. A(H  19,C   0,H  20)          109.6571         0.289665   
     28. A(N   6,C   1,O   9)          124.4527         0.464148   
     29. A(C   0,C   1,O   9)          121.6683         0.437590   
     30. A(C   0,C   1,N   6)          113.8088         0.396070   
     31. A(C   3,C   2,N   6)          113.4246         0.369906   
     32. A(N   6,C   2,H  21)          104.5578         0.327783   
     33. A(C   4,C   2,H  21)          105.6536         0.319059   
     34. A(C   4,C   2,N   6)          109.7637         0.364643   
     35. A(C   3,C   2,C   4)          114.9045         0.359643   
     36. A(C   3,C   2,H  21)          107.6833         0.323452   
     37. A(H  15,C   3,H  17)          106.7894         0.289043   
     38. A(C   2,C   3,H  17)          112.0652         0.323956   
     39. A(H  15,C   3,H  16)          107.3177         0.288896   
     40. A(C   2,C   3,H  16)          111.1892         0.323783   
     41. A(C   2,C   3,H  15)          110.8337         0.323827   
     42. A(H  16,C   3,H  17)          108.4238         0.289006   
     43. A(C   2,C   4,N   7)          115.5910         0.384863   
     44. A(N   7,C   4,O   8)          122.1425         0.461731   
     45. A(C   2,C   4,O   8)          121.9185         0.423571   
     46. A(H  13,C   5,H  14)          109.5543         0.289820   
     47. A(H  12,C   5,H  14)          109.8657         0.289817   
     48. A(N   7,C   5,H  14)          108.4250         0.333515   
     49. A(H  12,C   5,H  13)          109.6260         0.289750   
     50. A(N   7,C   5,H  13)          108.4925         0.333434   
     51. A(N   7,C   5,H  12)          110.8462         0.333430   
     52. A(C   2,N   6,H  10)          114.6280         0.336114   
     53. A(C   1,N   6,H  10)          115.3292         0.354586   
     54. A(C   1,N   6,C   2)          122.5013         0.396481   
     55. A(C   5,N   7,H  11)          117.8636         0.341325   
     56. A(C   4,N   7,H  11)          120.0722         0.354540   
     57. A(C   4,N   7,C   5)          121.7220         0.402205   
     58. D(N   6,C   1,C   0,H  20)    101.3041         0.012299   
     59. D(O   9,C   1,C   0,H  19)     43.9468         0.012299   
     60. D(O   9,C   1,C   0,H  20)    -75.7789         0.012299   
     61. D(N   6,C   1,C   0,H  18)    -19.0737         0.012299   
     62. D(O   9,C   1,C   0,H  18)    163.8432         0.012299   
     63. D(N   6,C   1,C   0,H  19)   -138.9701         0.012299   
     64. D(H  17,C   3,C   2,C   4)     47.1329         0.011393   
     65. D(H  16,C   3,C   2,H  21)    -73.9375         0.011393   
     66. D(H  15,C   3,C   2,C   4)    -72.0593         0.011393   
     67. D(H  15,C   3,C   2,N   6)    160.5360         0.011393   
     68. D(H  16,C   3,C   2,N   6)     41.2541         0.011393   
     69. D(H  17,C   3,C   2,N   6)    -80.2719         0.011393   
     70. D(H  15,C   3,C   2,H  21)     45.3445         0.011393   
     71. D(H  16,C   3,C   2,C   4)    168.6588         0.011393   
     72. D(H  17,C   3,C   2,H  21)    164.5366         0.011393   
     73. D(O   8,C   4,C   2,H  21)     93.9543         0.009145   
     74. D(O   8,C   4,C   2,N   6)    -18.2592         0.009145   
     75. D(O   8,C   4,C   2,C   3)   -147.4977         0.009145   
     76. D(N   7,C   4,C   2,H  21)    -79.4069         0.009145   
     77. D(N   7,C   4,C   2,N   6)    168.3796         0.009145   
     78. D(N   7,C   4,C   2,C   3)     39.1411         0.009145   
     79. D(H  10,N   6,C   2,C   4)     69.5824         0.015404   
     80. D(H  10,N   6,C   2,C   3)   -160.3775         0.015404   
     81. D(C   1,N   6,C   2,H  21)    168.4351         0.015404   
     82. D(C   1,N   6,C   2,C   4)    -78.6397         0.015404   
     83. D(C   1,N   6,C   2,C   3)     51.4004         0.015404   
     84. D(H  10,N   6,C   1,O   9)   -156.3436         0.027427   
     85. D(H  10,N   6,C   1,C   0)     26.6672         0.027427   
     86. D(C   2,N   6,C   1,O   9)     -8.3247         0.027427   
     87. D(H  10,N   6,C   2,H  21)    -43.3428         0.015404   
     88. D(C   2,N   6,C   1,C   0)    174.6861         0.027427   
     89. D(H  11,N   7,C   5,H  14)    -32.2827         0.018368   
     90. D(H  11,N   7,C   5,H  13)     86.6257         0.018368   
     91. D(C   4,N   7,C   5,H  14)    154.4323         0.018368   
     92. D(C   4,N   7,C   5,H  13)    -86.6594         0.018368   
     93. D(C   4,N   7,C   5,H  12)     33.7602         0.018368   
     94. D(H  11,N   7,C   4,O   8)   -170.1248         0.027094   
     95. D(H  11,N   7,C   5,H  12)   -152.9547         0.018368   
     96. D(H  11,N   7,C   4,C   2)      3.2200         0.027094   
     97. D(C   5,N   7,C   4,O   8)      3.0147         0.027094   
     98. D(C   5,N   7,C   4,C   2)    176.3595         0.027094   
    -----------------------------------------------------------------

Number of atoms                         .... 22
Number of degrees of freedom            .... 98

         *************************************************************
         *                GEOMETRY OPTIMIZATION CYCLE   1            *
         *************************************************************
---------------------------------
CARTESIAN COORDINATES (ANGSTROEM)
---------------------------------
  C     -0.908330    2.953920   -1.883160
  C      0.171420    3.007970   -0.834130
  C      1.136510    1.777370    1.107220
  C      1.422230    3.033090    1.927390
  C      2.386600    1.106670    0.483870
  C      4.725760    0.431640    0.863380
  N      0.114610    1.975060    0.076470
  N      3.513170    1.089420    1.280220
  O      2.338880    0.517440   -0.596860
  O      0.977400    3.930130   -0.787220
  H     -0.313790    1.122560   -0.261820
  H      3.473170    1.453780    2.222360
  H      4.857810    0.508710   -0.219140
  H      4.665990   -0.621130    1.151980
  H      5.568230    0.903850    1.374820
  H      1.908770    2.777150    2.875200
  H      0.496400    3.567110    2.169720
  H      2.092620    3.722700    1.403810
  H     -1.348700    1.956350   -1.962690
  H     -0.481670    3.219130   -2.854320
  H     -1.693430    3.667910   -1.618910
  H      0.704850    1.028410    1.783620

----------------------------
CARTESIAN COORDINATES (A.U.)
----------------------------
  NO LB      ZA    FRAG     MASS         X           Y           Z
   0 C     6.0000    0    12.011   -1.716495    5.582100   -3.558657
   1 C     6.0000    0    12.011    0.323937    5.684240   -1.576277
   2 C     6.0000    0    12.011    2.147693    3.358743    2.092343
   3 C     6.0000    0    12.011    2.687625    5.731709    3.642239
   4 C     6.0000    0    12.011    4.510020    2.091303    0.914382
   5 C     6.0000    0    12.011    8.930392    0.815681    1.631552
   6 N     7.0000    0    14.007    0.216582    3.732322    0.144507
   7 N     7.0000    0    14.007    6.638929    2.058705    2.419265
   8 O     8.0000    0    15.999    4.419843    0.977820   -1.127902
   9 O     8.0000    0    15.999    1.847018    7.426869   -1.487630
  10 H     1.0000    0     1.008   -0.592977    2.121331   -0.494768
  11 H     1.0000    0     1.008    6.563340    2.747246    4.199652
  12 H     1.0000    0     1.008    9.179931    0.961323   -0.414115
  13 H     1.0000    0     1.008    8.817443   -1.173766    2.176927
  14 H     1.0000    0     1.008   10.522430    1.708029    2.598033
  15 H     1.0000    0     1.008    3.607053    5.248053    5.433341
  16 H     1.0000    0     1.008    0.938060    6.740861    4.100177
  17 H     1.0000    0     1.008    3.954479    7.034883    2.652816
  18 H     1.0000    0     1.008   -2.548674    3.696966   -3.708947
  19 H     1.0000    0     1.008   -0.910224    6.083274   -5.393883
  20 H     1.0000    0     1.008   -3.200119    6.931345   -3.059297
  21 H     1.0000    0     1.008    1.331973    1.943413    3.370553

--------------------------------
INTERNAL COORDINATES (ANGSTROEM)
--------------------------------
 C      0   0   0     0.000000000000     0.00000000     0.00000000
 C      1   0   0     1.506401475670     0.00000000     0.00000000
 C      2   1   0     2.492912932816   143.32926926     0.00000000
 C      3   2   1     1.526809570870    94.86342844   217.87379695
 C      3   2   1     1.549557588668   102.28109440   101.06276475
 C      5   3   2     2.464013564614   145.33380813   143.67052538
 N      2   1   3     1.378159208582   113.80882784   355.59244466
 N      5   3   2     1.379721294284   115.59101652   140.48693984
 O      5   3   2     1.231846794127   121.91849119   313.84813107
 O      2   1   3     1.225635906010   121.66832668   178.50937680
 H      7   2   1     1.012285994223   115.32921671    26.66718533
 H      8   5   3     1.010933226875   120.07222504     3.22004802
 H      6   5   3     1.093264166522    86.72346359   205.56671812
 H      6   5   3     1.093246123158   104.62964402    96.13044984
 H      6   5   3     1.092844389014   133.27815046   319.99896646
 H      4   3   2     1.095705367013   110.83371835   181.98664483
 H      4   3   2     1.095929914821   111.18918152    62.70472644
 H      4   3   2     1.095043707164   112.06517054   301.17875909
 H      1   2   3     1.093341969697   111.84460246   345.33383405
 H      1   2   3     1.093401502331   109.27657682   225.43746458
 H      1   2   3     1.093614096745   108.83699402   105.71169311
 H      3   2   1     1.097628533339   131.64236114   336.79408721

---------------------------
INTERNAL COORDINATES (A.U.)
---------------------------
 C      0   0   0     0.000000000000     0.00000000     0.00000000
 C      1   0   0     2.846686236751     0.00000000     0.00000000
 C      2   1   0     4.710922718732   143.32926926     0.00000000
 C      3   2   1     2.885251947594    94.86342844   217.87379695
 C      3   2   1     2.928239471323   102.28109440   101.06276475
 C      5   3   2     4.656310827387   145.33380813   143.67052538
 N      2   1   3     2.604343473162   113.80882784   355.59244466
 N      5   3   2     2.607295387336   115.59101652   140.48693984
 O      5   3   2     2.327853079848   121.91849119   313.84813107
 O      2   1   3     2.316116202259   121.66832668   178.50937680
 H      7   2   1     1.912943298286   115.32921671    26.66718533
 H      8   5   3     1.910386938475   120.07222504     3.22004802
 H      6   5   3     2.065969866755    86.72346359   205.56671812
 H      6   5   3     2.065935769740   104.62964402    96.13044984
 H      6   5   3     2.065176602229   133.27815046   319.99896646
 H      4   3   2     2.070583067121   110.83371835   181.98664483
 H      4   3   2     2.071007400984   111.18918152    62.70472644
 H      4   3   2     2.069332711214   112.06517054   301.17875909
 H      1   2   3     2.066116893449   111.84460246   345.33383405
 H      1   2   3     2.066229393824   109.27657682   225.43746458
 H      1   2   3     2.066631139044   108.83699402   105.71169311
 H      3   2   1     2.074217324788   131.64236114   336.79408721

---------------------
BASIS SET INFORMATION
---------------------
There are 4 groups of distinct atoms

 Group   1 Type C   : 7s4p1d contracted to 3s2p1d pattern {511/31/1}
 Group   2 Type N   : 7s4p1d contracted to 3s2p1d pattern {511/31/1}
 Group   3 Type O   : 7s4p1d contracted to 3s2p1d pattern {511/31/1}
 Group   4 Type H   : 4s1p contracted to 2s1p pattern {31/1}

Atom   0C    basis set group =>   1
Atom   1C    basis set group =>   1
Atom   2C    basis set group =>   1
Atom   3C    basis set group =>   1
Atom   4C    basis set group =>   1
Atom   5C    basis set group =>   1
Atom   6N    basis set group =>   2
Atom   7N    basis set group =>   2
Atom   8O    basis set group =>   3
Atom   9O    basis set group =>   3
Atom  10H    basis set group =>   4
Atom  11H    basis set group =>   4
Atom  12H    basis set group =>   4
Atom  13H    basis set group =>   4
Atom  14H    basis set group =>   4
Atom  15H    basis set group =>   4
Atom  16H    basis set group =>   4
Atom  17H    basis set group =>   4
Atom  18H    basis set group =>   4
Atom  19H    basis set group =>   4
Atom  20H    basis set group =>   4
Atom  21H    basis set group =>   4
------------------------------------------------------------------------------
                           ORCA GTO INTEGRAL CALCULATION
------------------------------------------------------------------------------
------------------------------------------------------------------------------
                   ___                                                        
                  /   \      - P O W E R E D   B Y -                         
                 /     \                                                     
                 |  |  |   _    _      __       _____    __    __             
                 |  |  |  | |  | |    /  \     |  _  \  |  |  /  |          
                  \  \/   | |  | |   /    \    | | | |  |  | /  /          
                 / \  \   | |__| |  /  /\  \   | |_| |  |  |/  /          
                |  |  |   |  __  | /  /__\  \  |    /   |      \           
                |  |  |   | |  | | |   __   |  |    \   |  |\   \          
                \     /   | |  | | |  |  |  |  | |\  \  |  | \   \       
                 \___/    |_|  |_| |__|  |__|  |_| \__\ |__|  \__/        
                                                                              
                      - O R C A' S   B I G   F R I E N D -                    
                                      &                                       
                       - I N T E G R A L  F E E D E R -                       
                                                                              
 v1 FN, 2020, v2 2021                                                         
------------------------------------------------------------------------------


Reading SHARK input file 168_neg79.SHARKINP.tmp ... ok
----------------------
SHARK INTEGRAL PACKAGE
----------------------

Number of atoms                             ...     22
Number of basis functions                   ...    200
Number of shells                            ...     96
Maximum angular momentum                    ...      2
Integral batch strategy                     ... SHARK/LIBINT Hybrid
RI-J (if used) integral strategy            ... SPLIT-RIJ (Revised 2003 algorithm where possible)
Printlevel                                  ...      1
Contraction scheme used                     ... SEGMENTED contraction
Coulomb Range Separation                    ... NOT USED
Exchange Range Separation                   ... NOT USED
Finite Nucleus Model                        ... NOT USED
Auxiliary Coulomb fitting basis             ... NOT available
Auxiliary J/K fitting basis                 ... NOT available
Auxiliary Correlation fitting basis         ... NOT available
Auxiliary 'external' fitting basis          ... NOT available
Integral threshold                          ...     2.500000e-11
Primitive cut-off                           ...     2.500000e-12
Primitive pair pre-selection threshold      ...     2.500000e-12

Calculating pre-screening integrals         ... done (  0.1 sec) Dimension = 96
Organizing shell pair data                  ... done (  0.1 sec)
Shell pair information
Total number of shell pairs                 ...      4656
Shell pairs after pre-screening             ...      4152
Total number of primitive shell pairs       ...     16456
Primitive shell pairs kept                  ...     10387
          la=0 lb=0:   1338 shell pairs
          la=1 lb=0:   1549 shell pairs
          la=1 lb=1:    463 shell pairs
          la=2 lb=0:    478 shell pairs
          la=2 lb=1:    275 shell pairs
          la=2 lb=2:     49 shell pairs

Calculating one electron integrals          ... done (  0.0 sec)
Calculating Nuclear repulsion               ... done (  0.0 sec) ENN=    558.459993052183 Eh

SHARK setup successfully completed in   0.3 seconds

Maximum memory used throughout the entire GTOINT-calculation: 26.3 MB
-------------------------------------------------------------------------------
                                 ORCA SCF
-------------------------------------------------------------------------------

------------
SCF SETTINGS
------------
Hamiltonian:
 Ab initio Hamiltonian  Method          .... Hartree-Fock(GTOs)


General Settings:
 Integral files         IntName         .... 168_neg79
 Hartree-Fock type      HFTyp           .... RHF
 Total Charge           Charge          ....    0
 Multiplicity           Mult            ....    1
 Number of Electrons    NEL             ....   78
 Basis Dimension        Dim             ....  200
 Nuclear Repulsion      ENuc            ....    558.4599930522 Eh

Convergence Acceleration:
 DIIS                   CNVDIIS         .... on
   Start iteration      DIISMaxIt       ....    12
   Startup error        DIISStart       ....  0.200000
   # of expansion vecs  DIISMaxEq       ....     5
   Bias factor          DIISBfac        ....   1.050
   Max. coefficient     DIISMaxC        ....  10.000
 Trust-Rad. Augm. Hess. CNVTRAH         .... auto
   Auto Start mean grad. ratio tolernc. ....  1.125000
   Auto Start start iteration           ....    20
   Auto Start num. interpolation iter.  ....    10
   Max. Number of Micro iterations      ....    16
   Max. Number of Macro iterations      .... Maxiter - #DIIS iter
   Number of Davidson start vectors     ....     2
   Converg. threshold I  (grad. norm)   ....   1.000e-05
   Converg. threshold II (energy diff.) ....   1.000e-08
   Grad. Scal. Fac. for Micro threshold ....   0.100
   Minimum threshold for Micro iter.    ....   0.010
   NR start threshold (gradient norm)   ....   0.001
   Initial trust radius                 ....   0.400
   Minimum AH scaling param. (alpha)    ....   1.000
   Maximum AH scaling param. (alpha)    .... 1000.000
   Orbital update algorithm             .... Taylor
   White noise on init. David. guess    .... on
   Maximum white noise                  ....   0.010
   Quad. conv. algorithm                .... NR
 SOSCF                  CNVSOSCF        .... on
   Start iteration      SOSCFMaxIt      ....   150
   Startup grad/error   SOSCFStart      ....  0.003300
 Level Shifting         CNVShift        .... on
   Level shift para.    LevelShift      ....    0.2500
   Turn off err/grad.   ShiftErr        ....    0.0010
 Zerner damping         CNVZerner       .... off
 Static damping         CNVDamp         .... on
   Fraction old density DampFac         ....    0.7000
   Max. Damping (<1)    DampMax         ....    0.9800
   Min. Damping (>=0)   DampMin         ....    0.0000
   Turn off err/grad.   DampErr         ....    0.1000
 Fernandez-Rico         CNVRico         .... off

SCF Procedure:
 Maximum # iterations   MaxIter         ....   125
 SCF integral mode      SCFMode         .... Direct
   Integral package                     .... SHARK and LIBINT hybrid scheme
 Reset frequency        DirectResetFreq ....    20
 Integral Threshold     Thresh          ....  2.500e-11 Eh
 Primitive CutOff       TCut            ....  2.500e-12 Eh

Convergence Tolerance:
 Convergence Check Mode ConvCheckMode   .... Total+1el-Energy
 Convergence forced     ConvForced      .... 0
 Energy Change          TolE            ....  1.000e-08 Eh
 1-El. energy change                    ....  1.000e-05 Eh
 Orbital Gradient       TolG            ....  1.000e-05
 Orbital Rotation angle TolX            ....  1.000e-05
 DIIS Error             TolErr          ....  5.000e-07


Diagonalization of the overlap matrix:
Smallest eigenvalue                        ... 1.372e-03
Time for diagonalization                   ...    0.008 sec
Threshold for overlap eigenvalues          ... 1.000e-08
Number of eigenvalues below threshold      ... 0
Time for construction of square roots      ...    0.006 sec
Total time needed                          ...    0.014 sec

Time for model grid setup =    0.477 sec

------------------------------
INITIAL GUESS: MODEL POTENTIAL
------------------------------
Loading Hartree-Fock densities                     ... done
Calculating cut-offs                               ... done
Initializing the effective Hamiltonian             ... done
Setting up the integral package (SHARK)            ... done
Starting the Coulomb interaction                   ... done (   0.3 sec)
Reading the grid                                   ... done
Mapping shells                                     ... done
Starting the XC term evaluation                    ... done (   0.3 sec)
Transforming the Hamiltonian                       ... done (   0.0 sec)
Diagonalizing the Hamiltonian                      ... done (   0.0 sec)
Back transforming the eigenvectors                 ... done (   0.0 sec)
Now organizing SCF variables                       ... done
                      ------------------
                      INITIAL GUESS DONE (   1.1 sec)
                      ------------------
--------------
SCF ITERATIONS
--------------
ITER       Energy         Delta-E        Max-DP      RMS-DP      [F,P]     Damp
               ***  Starting incremental Fock matrix formation  ***
  0   -492.0461790506   0.000000000000 0.06325810  0.00202350  0.2522650 0.7000
  1   -492.1999802222  -0.153801171587 0.04500879  0.00150458  0.1511715 0.7000
                               ***Turning on DIIS***
  2   -492.2912389899  -0.091258767739 0.09061282  0.00316356  0.0828623 0.0000
  3   -491.7468957737   0.544343216177 0.03533610  0.00104666  0.0541556 0.0000
  4   -492.4976273184  -0.750731544624 0.01036220  0.00034099  0.0082569 0.0000
  5   -492.4809774788   0.016649839534 0.00647702  0.00018442  0.0061256 0.0000
                      *** Initiating the SOSCF procedure ***
                           *** Shutting down DIIS ***
                      *** Re-Reading the Fockian *** 
                      *** Removing any level shift *** 
ITER      Energy       Delta-E        Grad      Rot      Max-DP    RMS-DP
  6   -492.48042587   0.0005516093  0.001710  0.001710  0.003400  0.000104
               *** Restarting incremental Fock matrix formation ***
  7   -492.48077046  -0.0003445903  0.000611  0.001063  0.001732  0.000051
  8   -492.48078920  -0.0000187394  0.000350  0.001337  0.001571  0.000052
  9   -492.48079628  -0.0000070768  0.000086  0.000079  0.000378  0.000008
 10   -492.48079658  -0.0000003075  0.000046  0.000031  0.000123  0.000003
 11   -492.48079669  -0.0000001083  0.000009  0.000015  0.000027  0.000001
 12   -492.48079670  -0.0000000089  0.000003  0.000009  0.000019  0.000000
                  ***Gradient check signals convergence***
              ***Rediagonalizing the Fockian in SOSCF/NRSCF***

               *****************************************************
               *                     SUCCESS                       *
               *           SCF CONVERGED AFTER  13 CYCLES          *
               *****************************************************


----------------
TOTAL SCF ENERGY
----------------

Total Energy       :         -492.48079670 Eh          -13401.08378 eV

Components:
Nuclear Repulsion  :          558.45999305 Eh           15196.46898 eV
Electronic Energy  :        -1050.94078976 Eh          -28597.55276 eV
One Electron Energy:        -1779.93472332 Eh          -48434.48618 eV
Two Electron Energy:          728.99393356 Eh           19836.93342 eV

Virial components:
Potential Energy   :         -982.53330144 Eh          -26736.09037 eV
Kinetic Energy     :          490.05250474 Eh           13335.00659 eV
Virial Ratio       :            2.00495517


---------------
SCF CONVERGENCE
---------------

  Last Energy change         ...   -2.0223e-09  Tolerance :   1.0000e-08
  Last MAX-Density change    ...    4.7265e-06  Tolerance :   1.0000e-07
  Last RMS-Density change    ...    1.3155e-07  Tolerance :   5.0000e-09
  Last Orbital Gradient      ...    1.0567e-06  Tolerance :   1.0000e-05
  Last Orbital Rotation      ...    1.1276e-06  Tolerance :   1.0000e-05

             **** THE GBW FILE WAS UPDATED (168_neg79.gbw) ****
             **** DENSITY 168_neg79.scfp WAS UPDATED ****
             **** ENERGY FILE WAS UPDATED (168_neg79.en.tmp) ****
             **** THE GBW FILE WAS UPDATED (168_neg79.gbw) ****
             **** DENSITY 168_neg79.scfp WAS UPDATED ****
----------------
ORBITAL ENERGIES
----------------

  NO   OCC          E(Eh)            E(eV) 
   0   2.0000     -20.515748      -558.2619 
   1   2.0000     -20.509334      -558.0873 
   2   2.0000     -15.586102      -424.1194 
   3   2.0000     -15.582091      -424.0103 
   4   2.0000     -11.355465      -308.9979 
   5   2.0000     -11.350132      -308.8528 
   6   2.0000     -11.292568      -307.2864 
   7   2.0000     -11.266436      -306.5753 
   8   2.0000     -11.237070      -305.7762 
   9   2.0000     -11.235182      -305.7248 
  10   2.0000      -1.363399       -37.1000 
  11   2.0000      -1.353032       -36.8179 
  12   2.0000      -1.217017       -33.1167 
  13   2.0000      -1.213688       -33.0261 
  14   2.0000      -1.046465       -28.4758 
  15   2.0000      -0.979969       -26.6663 
  16   2.0000      -0.940513       -25.5927 
  17   2.0000      -0.877406       -23.8754 
  18   2.0000      -0.792486       -21.5646 
  19   2.0000      -0.759946       -20.6792 
  20   2.0000      -0.718287       -19.5456 
  21   2.0000      -0.694165       -18.8892 
  22   2.0000      -0.650785       -17.7088 
  23   2.0000      -0.634112       -17.2551 
  24   2.0000      -0.622028       -16.9263 
  25   2.0000      -0.615577       -16.7507 
  26   2.0000      -0.598235       -16.2788 
  27   2.0000      -0.586462       -15.9584 
  28   2.0000      -0.560953       -15.2643 
  29   2.0000      -0.559138       -15.2149 
  30   2.0000      -0.551666       -15.0116 
  31   2.0000      -0.537188       -14.6176 
  32   2.0000      -0.531497       -14.4628 
  33   2.0000      -0.506130       -13.7725 
  34   2.0000      -0.501286       -13.6407 
  35   2.0000      -0.430172       -11.7056 
  36   2.0000      -0.416767       -11.3408 
  37   2.0000      -0.394773       -10.7423 
  38   2.0000      -0.390182       -10.6174 
  39   0.0000       0.150393         4.0924 
  40   0.0000       0.178118         4.8468 
  41   0.0000       0.184587         5.0229 
  42   0.0000       0.188327         5.1246 
  43   0.0000       0.205446         5.5905 
  44   0.0000       0.212020         5.7693 
  45   0.0000       0.236720         6.4415 
  46   0.0000       0.243299         6.6205 
  47   0.0000       0.256564         6.9815 
  48   0.0000       0.277374         7.5477 
  49   0.0000       0.278521         7.5789 
  50   0.0000       0.286287         7.7903 
  51   0.0000       0.287366         7.8196 
  52   0.0000       0.293488         7.9862 
  53   0.0000       0.353459         9.6181 
  54   0.0000       0.367396         9.9973 
  55   0.0000       0.391213        10.6454 
  56   0.0000       0.416299        11.3281 
  57   0.0000       0.431279        11.7357 
  58   0.0000       0.470397        12.8002 
  59   0.0000       0.486617        13.2415 
  60   0.0000       0.533919        14.5287 
  61   0.0000       0.559623        15.2281 
  62   0.0000       0.591026        16.0826 
  63   0.0000       0.619471        16.8567 
  64   0.0000       0.628199        17.0942 
  65   0.0000       0.640505        17.4290 
  66   0.0000       0.662255        18.0209 
  67   0.0000       0.669856        18.2277 
  68   0.0000       0.683975        18.6119 
  69   0.0000       0.706617        19.2280 
  70   0.0000       0.709364        19.3028 
  71   0.0000       0.745752        20.2929 
  72   0.0000       0.789399        21.4806 
  73   0.0000       0.800759        21.7898 
  74   0.0000       0.819841        22.3090 
  75   0.0000       0.837078        22.7781 
  76   0.0000       0.843828        22.9617 
  77   0.0000       0.856629        23.3100 
  78   0.0000       0.868800        23.6412 
  79   0.0000       0.877629        23.8815 
  80   0.0000       0.884759        24.0755 
  81   0.0000       0.889080        24.1931 
  82   0.0000       0.896791        24.4029 
  83   0.0000       0.904240        24.6056 
  84   0.0000       0.907108        24.6837 
  85   0.0000       0.910738        24.7824 
  86   0.0000       0.912668        24.8349 
  87   0.0000       0.925930        25.1958 
  88   0.0000       0.937929        25.5224 
  89   0.0000       0.949407        25.8347 
  90   0.0000       0.964603        26.2482 
  91   0.0000       0.969650        26.3855 
  92   0.0000       0.980610        26.6838 
  93   0.0000       1.014157        27.5966 
  94   0.0000       1.042011        28.3546 
  95   0.0000       1.051476        28.6121 
  96   0.0000       1.095756        29.8170 
  97   0.0000       1.127384        30.6777 
  98   0.0000       1.158623        31.5277 
  99   0.0000       1.184009        32.2185 
 100   0.0000       1.187259        32.3070 
 101   0.0000       1.250613        34.0309 
 102   0.0000       1.269772        34.5523 
 103   0.0000       1.295966        35.2650 
 104   0.0000       1.348618        36.6978 
 105   0.0000       1.366551        37.1858 
 106   0.0000       1.383617        37.6501 
 107   0.0000       1.428168        38.8624 
 108   0.0000       1.455308        39.6009 
 109   0.0000       1.472044        40.0564 
 110   0.0000       1.474580        40.1254 
 111   0.0000       1.513329        41.1798 
 112   0.0000       1.524163        41.4746 
 113   0.0000       1.563583        42.5473 
 114   0.0000       1.578767        42.9604 
 115   0.0000       1.611321        43.8463 
 116   0.0000       1.659691        45.1625 
 117   0.0000       1.676598        45.6225 
 118   0.0000       1.713654        46.6309 
 119   0.0000       1.721100        46.8335 
 120   0.0000       1.763849        47.9968 
 121   0.0000       1.785092        48.5748 
 122   0.0000       1.798541        48.9408 
 123   0.0000       1.837779        50.0085 
 124   0.0000       1.850066        50.3429 
 125   0.0000       1.887166        51.3524 
 126   0.0000       1.908163        51.9237 
 127   0.0000       1.936283        52.6889 
 128   0.0000       1.964683        53.4617 
 129   0.0000       2.001735        54.4700 
 130   0.0000       2.018793        54.9342 
 131   0.0000       2.032647        55.3111 
 132   0.0000       2.043545        55.6077 
 133   0.0000       2.054173        55.8969 
 134   0.0000       2.059824        56.0507 
 135   0.0000       2.065910        56.2163 
 136   0.0000       2.072284        56.3897 
 137   0.0000       2.089912        56.8694 
 138   0.0000       2.104907        57.2774 
 139   0.0000       2.121415        57.7267 
 140   0.0000       2.152466        58.5716 
 141   0.0000       2.177434        59.2510 
 142   0.0000       2.191359        59.6299 
 143   0.0000       2.208749        60.1031 
 144   0.0000       2.214802        60.2678 
 145   0.0000       2.222663        60.4817 
 146   0.0000       2.252916        61.3050 
 147   0.0000       2.275530        61.9203 
 148   0.0000       2.298797        62.5535 
 149   0.0000       2.325238        63.2729 
 150   0.0000       2.349070        63.9214 
 151   0.0000       2.355724        64.1025 
 152   0.0000       2.400463        65.3199 
 153   0.0000       2.410935        65.6049 
 154   0.0000       2.433399        66.2162 
 155   0.0000       2.475696        67.3671 
 156   0.0000       2.491822        67.8059 
 157   0.0000       2.526820        68.7583 
 158   0.0000       2.594312        70.5948 
 159   0.0000       2.603836        70.8540 
 160   0.0000       2.632869        71.6440 
 161   0.0000       2.650100        72.1129 
 162   0.0000       2.710781        73.7641 
 163   0.0000       2.738780        74.5260 
 164   0.0000       2.751438        74.8704 
 165   0.0000       2.793620        76.0183 
 166   0.0000       2.798248        76.1442 
 167   0.0000       2.829919        77.0060 
 168   0.0000       2.844309        77.3976 
 169   0.0000       2.895227        78.7831 
 170   0.0000       2.909371        79.1680 
 171   0.0000       2.985568        81.2414 
 172   0.0000       3.003624        81.7328 
 173   0.0000       3.018462        82.1365 
 174   0.0000       3.045624        82.8756 
 175   0.0000       3.072606        83.6099 
 176   0.0000       3.102300        84.4179 
 177   0.0000       3.120591        84.9156 
 178   0.0000       3.129086        85.1468 
 179   0.0000       3.159032        85.9616 
 180   0.0000       3.174142        86.3728 
 181   0.0000       3.236496        88.0695 
 182   0.0000       3.247278        88.3629 
 183   0.0000       3.274346        89.0995 
 184   0.0000       3.291043        89.5538 
 185   0.0000       3.296658        89.7066 
 186   0.0000       3.317809        90.2822 
 187   0.0000       3.320444        90.3539 
 188   0.0000       3.347404        91.0875 
 189   0.0000       3.376560        91.8809 
 190   0.0000       3.494635        95.0938 
 191   0.0000       3.503287        95.3293 
 192   0.0000       3.564922        97.0065 
 193   0.0000       3.581491        97.4573 
 194   0.0000       3.662540        99.6628 
 195   0.0000       3.666871        99.7806 
 196   0.0000       3.918694       106.6331 
 197   0.0000       3.924905       106.8021 
 198   0.0000       4.064736       110.6071 
 199   0.0000       4.085813       111.1806 

                    ********************************
                    * MULLIKEN POPULATION ANALYSIS *
                    ********************************

-----------------------
MULLIKEN ATOMIC CHARGES
-----------------------
   0 C :   -0.024826
   1 C :    0.368313
   2 C :    0.042574
   3 C :   -0.010773
   4 C :    0.452614
   5 C :    0.163545
   6 N :   -0.450077
   7 N :   -0.480811
   8 O :   -0.459451
   9 O :   -0.459055
  10 H :    0.168259
  11 H :    0.160214
  12 H :    0.070665
  13 H :    0.034946
  14 H :    0.031535
  15 H :    0.016556
  16 H :    0.054683
  17 H :    0.084413
  18 H :    0.029197
  19 H :    0.072224
  20 H :    0.071690
  21 H :    0.063565
Sum of atomic charges:   -0.0000000

--------------------------------
MULLIKEN REDUCED ORBITAL CHARGES
--------------------------------
  0 C s       :     3.020892  s :     3.020892
      pz      :     0.986127  p :     2.970218
      px      :     0.973572
      py      :     1.010519
      dz2     :     0.007097  d :     0.033716
      dxz     :     0.011110
      dyz     :     0.002388
      dx2y2   :     0.005232
      dxy     :     0.007889
  1 C s       :     3.068016  s :     3.068016
      pz      :     0.815084  p :     2.426415
      px      :     0.836013
      py      :     0.775318
      dz2     :     0.015653  d :     0.137256
      dxz     :     0.026278
      dyz     :     0.032401
      dx2y2   :     0.039643
      dxy     :     0.023282
  2 C s       :     3.079804  s :     3.079804
      pz      :     0.911587  p :     2.811482
      px      :     0.861269
      py      :     1.038626
      dz2     :     0.009745  d :     0.066140
      dxz     :     0.018717
      dyz     :     0.013768
      dx2y2   :     0.012076
      dxy     :     0.011835
  3 C s       :     3.044485  s :     3.044485
      pz      :     0.942624  p :     2.929725
      px      :     1.045428
      py      :     0.941673
      dz2     :     0.005727  d :     0.036562
      dxz     :     0.007123
      dyz     :     0.009519
      dx2y2   :     0.005249
      dxy     :     0.008944
  4 C s       :     3.039266  s :     3.039266
      pz      :     0.814126  p :     2.375773
      px      :     0.828368
      py      :     0.733280
      dz2     :     0.029122  d :     0.132346
      dxz     :     0.045003
      dyz     :     0.024885
      dx2y2   :     0.013836
      dxy     :     0.019500
  5 C s       :     3.001799  s :     3.001799
      pz      :     1.034351  p :     2.782241
      px      :     0.803936
      py      :     0.943954
      dz2     :     0.011709  d :     0.052415
      dxz     :     0.008916
      dyz     :     0.004550
      dx2y2   :     0.014320
      dxy     :     0.012919
  6 N s       :     3.437286  s :     3.437286
      pz      :     1.324126  p :     3.988905
      px      :     1.486846
      py      :     1.177933
      dz2     :     0.003302  d :     0.023886
      dxz     :     0.004900
      dyz     :     0.008100
      dx2y2   :     0.004550
      dxy     :     0.003034
  7 N s       :     3.432542  s :     3.432542
      pz      :     1.178010  p :     4.024827
      px      :     1.219446
      py      :     1.627371
      dz2     :     0.005371  d :     0.023441
      dxz     :     0.006836
      dyz     :     0.002250
      dx2y2   :     0.004674
      dxy     :     0.004310
  8 O s       :     3.796579  s :     3.796579
      pz      :     1.375204  p :     4.643401
      px      :     1.789280
      py      :     1.478916
      dz2     :     0.007348  d :     0.019471
      dxz     :     0.003000
      dyz     :     0.006713
      dx2y2   :     0.001508
      dxy     :     0.000901
  9 O s       :     3.797750  s :     3.797750
      pz      :     1.707410  p :     4.641612
      px      :     1.473135
      py      :     1.461067
      dz2     :     0.002494  d :     0.019694
      dxz     :     0.001948
      dyz     :     0.002672
      dx2y2   :     0.005421
      dxy     :     0.007159
 10 H s       :     0.786016  s :     0.786016
      pz      :     0.009551  p :     0.045725
      px      :     0.013108
      py      :     0.023066
 11 H s       :     0.793275  s :     0.793275
      pz      :     0.027230  p :     0.046511
      px      :     0.004905
      py      :     0.014376
 12 H s       :     0.903678  s :     0.903678
      pz      :     0.019350  p :     0.025657
      px      :     0.002786
      py      :     0.003521
 13 H s       :     0.940616  s :     0.940616
      pz      :     0.004795  p :     0.024438
      px      :     0.002610
      py      :     0.017032
 14 H s       :     0.943647  s :     0.943647
      pz      :     0.006833  p :     0.024818
      px      :     0.011696
      py      :     0.006290
 15 H s       :     0.958089  s :     0.958089
      pz      :     0.014344  p :     0.025355
      px      :     0.006875
      py      :     0.004135
 16 H s       :     0.919940  s :     0.919940
      pz      :     0.004325  p :     0.025377
      px      :     0.013995
      py      :     0.007057
 17 H s       :     0.889566  s :     0.889566
      pz      :     0.008015  p :     0.026021
      px      :     0.008732
      py      :     0.009273
 18 H s       :     0.945104  s :     0.945104
      pz      :     0.003798  p :     0.025699
      px      :     0.006214
      py      :     0.015687
 19 H s       :     0.901712  s :     0.901712
      pz      :     0.015245  p :     0.026064
      px      :     0.006028
      py      :     0.004791
 20 H s       :     0.901688  s :     0.901688
      pz      :     0.004755  p :     0.026623
      px      :     0.011438
      py      :     0.010430
 21 H s       :     0.913461  s :     0.913461
      pz      :     0.008291  p :     0.022974
      px      :     0.004927
      py      :     0.009756


                     *******************************
                     * LOEWDIN POPULATION ANALYSIS *
                     *******************************

----------------------
LOEWDIN ATOMIC CHARGES
----------------------
   0 C :   -0.047560
   1 C :    0.185317
   2 C :    0.033729
   3 C :   -0.030964
   4 C :    0.184853
   5 C :    0.072104
   6 N :   -0.086910
   7 N :   -0.099303
   8 O :   -0.325140
   9 O :   -0.313932
  10 H :    0.080431
  11 H :    0.075205
  12 H :    0.032200
  13 H :    0.011295
  14 H :    0.015698
  15 H :    0.009532
  16 H :    0.030384
  17 H :    0.034259
  18 H :    0.019883
  19 H :    0.042666
  20 H :    0.043822
  21 H :    0.032432

-------------------------------
LOEWDIN REDUCED ORBITAL CHARGES
-------------------------------
  0 C s       :     2.837216  s :     2.837216
      pz      :     1.042119  p :     3.132158
      px      :     1.037195
      py      :     1.052844
      dz2     :     0.016999  d :     0.078186
      dxz     :     0.025134
      dyz     :     0.005296
      dx2y2   :     0.011824
      dxy     :     0.018933
  1 C s       :     2.841613  s :     2.841613
      pz      :     0.884975  p :     2.694292
      px      :     0.907278
      py      :     0.902040
      dz2     :     0.031404  d :     0.278778
      dxz     :     0.051636
      dyz     :     0.068037
      dx2y2   :     0.077387
      dxy     :     0.050313
  2 C s       :     2.839235  s :     2.839235
      pz      :     0.969058  p :     2.988514
      px      :     0.966428
      py      :     1.053028
      dz2     :     0.019731  d :     0.138522
      dxz     :     0.039841
      dyz     :     0.028836
      dx2y2   :     0.025527
      dxy     :     0.024587
  3 C s       :     2.833118  s :     2.833118
      pz      :     1.029897  p :     3.115729
      px      :     1.068212
      py      :     1.017620
      dz2     :     0.012975  d :     0.082117
      dxz     :     0.015766
      dyz     :     0.021341
      dx2y2   :     0.011550
      dxy     :     0.020485
  4 C s       :     2.851950  s :     2.851950
      pz      :     0.943893  p :     2.692397
      px      :     0.951081
      py      :     0.797423
      dz2     :     0.058079  d :     0.270801
      dxz     :     0.096379
      dyz     :     0.049962
      dx2y2   :     0.027307
      dxy     :     0.039074
  5 C s       :     2.820467  s :     2.820467
      pz      :     1.065124  p :     2.991942
      px      :     0.909048
      py      :     1.017770
      dz2     :     0.026447  d :     0.115488
      dxz     :     0.019069
      dyz     :     0.009026
      dx2y2   :     0.033045
      dxy     :     0.027901
  6 N s       :     3.070921  s :     3.070921
      pz      :     1.318704  p :     3.962960
      px      :     1.430980
      py      :     1.213276
      dz2     :     0.007592  d :     0.053029
      dxz     :     0.009466
      dyz     :     0.018123
      dx2y2   :     0.009788
      dxy     :     0.008059
  7 N s       :     3.055497  s :     3.055497
      pz      :     1.219107  p :     3.991258
      px      :     1.219007
      py      :     1.553144
      dz2     :     0.013417  d :     0.052548
      dxz     :     0.015742
      dyz     :     0.005285
      dx2y2   :     0.009885
      dxy     :     0.008219
  8 O s       :     3.557653  s :     3.557653
      pz      :     1.464408  p :     4.737348
      px      :     1.774913
      py      :     1.498027
      dz2     :     0.011136  d :     0.030139
      dxz     :     0.004345
      dyz     :     0.011397
      dx2y2   :     0.001987
      dxy     :     0.001274
  9 O s       :     3.553711  s :     3.553711
      pz      :     1.688423  p :     4.729720
      px      :     1.519330
      py      :     1.521967
      dz2     :     0.004634  d :     0.030501
      dxz     :     0.002596
      dyz     :     0.003385
      dx2y2   :     0.006445
      dxy     :     0.013439
 10 H s       :     0.789313  s :     0.789313
      pz      :     0.031069  p :     0.130256
      px      :     0.041916
      py      :     0.057271
 11 H s       :     0.792489  s :     0.792489
      pz      :     0.067175  p :     0.132306
      px      :     0.019824
      py      :     0.045307
 12 H s       :     0.901390  s :     0.901390
      pz      :     0.045990  p :     0.066410
      px      :     0.009605
      py      :     0.010815
 13 H s       :     0.924421  s :     0.924421
      pz      :     0.013908  p :     0.064284
      px      :     0.009551
      py      :     0.040825
 14 H s       :     0.920477  s :     0.920477
      pz      :     0.018409  p :     0.063826
      px      :     0.028556
      py      :     0.016861
 15 H s       :     0.925052  s :     0.925052
      pz      :     0.033734  p :     0.065416
      px      :     0.018306
      py      :     0.013376
 16 H s       :     0.903783  s :     0.903783
      pz      :     0.012859  p :     0.065833
      px      :     0.033369
      py      :     0.019605
 17 H s       :     0.896588  s :     0.896588
      pz      :     0.020589  p :     0.069153
      px      :     0.023347
      py      :     0.025217
 18 H s       :     0.913906  s :     0.913906
      pz      :     0.012209  p :     0.066211
      px      :     0.017688
      py      :     0.036314
 19 H s       :     0.890348  s :     0.890348
      pz      :     0.036811  p :     0.066986
      px      :     0.016368
      py      :     0.013807
 20 H s       :     0.888401  s :     0.888401
      pz      :     0.014234  p :     0.067777
      px      :     0.028164
      py      :     0.025380
 21 H s       :     0.900425  s :     0.900425
      pz      :     0.023907  p :     0.067142
      px      :     0.016556
      py      :     0.026679


                      *****************************
                      * MAYER POPULATION ANALYSIS *
                      *****************************

  NA   - Mulliken gross atomic population
  ZA   - Total nuclear charge
  QA   - Mulliken gross atomic charge
  VA   - Mayer's total valence
  BVA  - Mayer's bonded valence
  FA   - Mayer's free valence

  ATOM       NA         ZA         QA         VA         BVA        FA
  0 C      6.0248     6.0000    -0.0248     3.8804     3.8804     0.0000
  1 C      5.6317     6.0000     0.3683     4.0525     4.0525     0.0000
  2 C      5.9574     6.0000     0.0426     3.8062     3.8062     0.0000
  3 C      6.0108     6.0000    -0.0108     3.9302     3.9302    -0.0000
  4 C      5.5474     6.0000     0.4526     3.9914     3.9914    -0.0000
  5 C      5.8365     6.0000     0.1635     3.8774     3.8774    -0.0000
  6 N      7.4501     7.0000    -0.4501     2.9442     2.9442     0.0000
  7 N      7.4808     7.0000    -0.4808     2.9898     2.9898     0.0000
  8 O      8.4595     8.0000    -0.4595     2.0283     2.0283     0.0000
  9 O      8.4591     8.0000    -0.4591     2.0065     2.0065    -0.0000
 10 H      0.8317     1.0000     0.1683     0.9790     0.9790     0.0000
 11 H      0.8398     1.0000     0.1602     0.9772     0.9772     0.0000
 12 H      0.9293     1.0000     0.0707     0.9997     0.9997    -0.0000
 13 H      0.9651     1.0000     0.0349     0.9810     0.9810    -0.0000
 14 H      0.9685     1.0000     0.0315     0.9834     0.9834    -0.0000
 15 H      0.9834     1.0000     0.0166     0.9764     0.9764    -0.0000
 16 H      0.9453     1.0000     0.0547     0.9899     0.9899    -0.0000
 17 H      0.9156     1.0000     0.0844     1.0011     1.0011    -0.0000
 18 H      0.9708     1.0000     0.0292     0.9883     0.9883    -0.0000
 19 H      0.9278     1.0000     0.0722     0.9964     0.9964    -0.0000
 20 H      0.9283     1.0000     0.0717     0.9900     0.9900    -0.0000
 21 H      0.9364     1.0000     0.0636     0.9765     0.9765    -0.0000

  Mayer bond orders larger than 0.100000
B(  0-C ,  1-C ) :   0.9927 B(  0-C , 18-H ) :   0.9846 B(  0-C , 19-H ) :   0.9765 
B(  0-C , 20-H ) :   0.9680 B(  1-C ,  6-N ) :   1.0965 B(  1-C ,  9-O ) :   1.9255 
B(  2-C ,  3-C ) :   1.0332 B(  2-C ,  4-C ) :   0.9154 B(  2-C ,  6-N ) :   0.9273 
B(  2-C , 21-H ) :   0.9636 B(  3-C , 15-H ) :   0.9741 B(  3-C , 16-H ) :   0.9806 
B(  3-C , 17-H ) :   0.9774 B(  4-C ,  7-N ) :   1.1528 B(  4-C ,  8-O ) :   1.9504 
B(  5-C ,  7-N ) :   0.8943 B(  5-C , 12-H ) :   0.9850 B(  5-C , 13-H ) :   0.9935 
B(  5-C , 14-H ) :   0.9928 B(  6-N , 10-H ) :   0.9371 B(  7-N , 11-H ) :   0.9415 


-------
TIMINGS
-------

Total SCF time: 0 days 0 hours 1 min 27 sec 

Total time                  ....      87.341 sec
Sum of individual times     ....      86.851 sec  ( 99.4%)

Fock matrix formation       ....      85.584 sec  ( 98.0%)
Diagonalization             ....       0.065 sec  (  0.1%)
Density matrix formation    ....       0.009 sec  (  0.0%)
Population analysis         ....       0.015 sec  (  0.0%)
Initial guess               ....       0.612 sec  (  0.7%)
Orbital Transformation      ....       0.000 sec  (  0.0%)
Orbital Orthonormalization  ....       0.000 sec  (  0.0%)
DIIS solution               ....       0.045 sec  (  0.1%)
SOSCF solution              ....       0.045 sec  (  0.1%)

Maximum memory used throughout the entire SCF-calculation: 250.3 MB

-------------------------   --------------------
FINAL SINGLE POINT ENERGY      -492.480796702852
-------------------------   --------------------

------------------------------------------------------------------------------
                         ORCA SCF GRADIENT CALCULATION
------------------------------------------------------------------------------

Gradient of the Hartree-Fock SCF energy:
Hartree-Fock type                ... RHF
Number of operators              ...    1
Number of atoms                  ...   22
Basis set dimensions             ...  200
Integral neglect threshold       ... 2.5e-11
Integral primitive cutoff        ... 2.5e-12
SHARK Integral package           ... ON

Nuc. rep. gradient       (SHARK) ... done (  0.0 sec)
HCore & Overlap gradient (SHARK) ... done (  0.5 sec)
Two-Electron gradient    (SHARK) ... done ( 26.2 sec)

------------------
CARTESIAN GRADIENT
------------------

   1   C   :   -0.000276616    0.004894865    0.005978753
   2   C   :   -0.031549187   -0.025591426   -0.006817990
   3   C   :    0.006427325    0.004140622    0.015854867
   4   C   :   -0.009063887   -0.009444923   -0.003668033
   5   C   :   -0.014352089    0.034494435    0.022261078
   6   C   :    0.001297421    0.004349803   -0.004524262
   7   N   :   -0.008623940   -0.006953270    0.002116285
   8   N   :    0.027120511   -0.012391662    0.012216862
   9   O   :   -0.002271559   -0.036438583   -0.055288130
  10   O   :    0.037149562    0.044360294   -0.001460694
  11   H   :   -0.005684889   -0.012099109   -0.005081087
  12   H   :    0.001296797    0.002932308    0.015466924
  13   H   :    0.001741862    0.000136053   -0.005815257
  14   H   :   -0.007610202    0.001231383    0.004275599
  15   H   :    0.000413250    0.002679620    0.002885107
  16   H   :    0.003807498    0.001905009    0.001173359
  17   H   :   -0.003441876    0.004324928    0.002335063
  18   H   :    0.007145761    0.003510306   -0.001011685
  19   H   :    0.000712825   -0.003644377   -0.000331889
  20   H   :    0.001992700   -0.002365198   -0.004374301
  21   H   :   -0.002285659    0.000668044    0.001778477
  22   H   :   -0.003945608   -0.000699122    0.002030955

Difference to translation invariance:
           :   -0.0000000000   -0.0000000000   -0.0000000000

Difference to rotation invariance:
           :   -0.0000009277   -0.0000010887    0.0000002384

Norm of the cartesian gradient     ...    0.1177487653
RMS gradient                       ...    0.0144938711
MAX gradient                       ...    0.0552881304

-------
TIMINGS
-------

Total SCF gradient time            ...       26.803 sec

One electron gradient       ....       0.463 sec  (  1.7%)
Two electron gradient       ....      26.217 sec  ( 97.8%)

Maximum memory used throughout the entire SCFGRAD-calculation: 40.3 MB
------------------------------------------------------------------------------
                         ORCA GEOMETRY RELAXATION STEP
------------------------------------------------------------------------------

Reading the OPT-File                    .... done
Getting information on internals        .... done
Copying old internal coords+grads       .... done
Making the new internal coordinates     .... (new redundants).... done
Validating the new internal coordinates .... (new redundants).... done
Calculating the B-matrix                .... done
Calculating the G,G- and P matrices     .... done
Transforming gradient to internals      .... done
Projecting the internal gradient        .... done
Number of atoms                         ....  22
Number of internal coordinates          ....  98
Current Energy                          ....  -492.480796703 Eh
Current gradient norm                   ....     0.117748765 Eh/bohr
Maximum allowed component of the step   ....  0.300
Current trust radius                    ....  0.300
Evaluating the initial hessian          ....  (Almloef) done
Projecting the Hessian                  .... done
Forming the augmented Hessian           .... done
Diagonalizing the augmented Hessian     .... done
Last element of RFO vector              ....  0.970050753
Lowest eigenvalues of augmented Hessian:
 -0.015454884  0.009145205  0.011397285  0.012300883  0.015506921
Length of the computed step             ....  0.250401660
The final length of the internal step   ....  0.250401660
Converting the step to cartesian space:
 Initial RMS(Int)=    0.0252943874
Transforming coordinates:
 Iter   0:  RMS(Cart)=    0.0747250262 RMS(Int)=    0.0254093364
 Iter   1:  RMS(Cart)=    0.0022605616 RMS(Int)=    0.0010505128
 Iter   2:  RMS(Cart)=    0.0001177601 RMS(Int)=    0.0000565310
 Iter   3:  RMS(Cart)=    0.0000063982 RMS(Int)=    0.0000029398
 Iter   4:  RMS(Cart)=    0.0000003408 RMS(Int)=    0.0000001921
 Iter   5:  RMS(Cart)=    0.0000000205 RMS(Int)=    0.0000000108
done
Storing new coordinates                 .... done

                                .--------------------.
          ----------------------|Geometry convergence|-------------------------
          Item                value                   Tolerance       Converged
          ---------------------------------------------------------------------
          RMS gradient        0.0104722105            0.0001000000      NO
          MAX gradient        0.0660233507            0.0003000000      NO
          RMS step            0.0252943874            0.0020000000      NO
          MAX step            0.0857769117            0.0040000000      NO
          ........................................................
          Max(Bonds)      0.0344      Max(Angles)    2.40
          Max(Dihed)        4.91      Max(Improp)    0.00
          ---------------------------------------------------------------------

The optimization has not yet converged - more geometry cycles are needed


    ---------------------------------------------------------------------------
                         Redundant Internal Coordinates
                            (Angstroem and degrees)

        Definition                    Value    dE/dq     Step     New-Value
    ----------------------------------------------------------------------------
     1. B(C   1,C   0)                1.5064 -0.002211  0.0028    1.5092   
     2. B(C   3,C   2)                1.5268 -0.000677  0.0009    1.5277   
     3. B(C   4,C   2)                1.5496  0.010890 -0.0159    1.5337   
     4. B(N   6,C   2)                1.4649  0.011641 -0.0140    1.4509   
     5. B(N   6,C   1)                1.3782  0.017423 -0.0154    1.3628   
     6. B(N   7,C   5)                1.4411 -0.006412  0.0071    1.4482   
     7. B(N   7,C   4)                1.3797  0.033966 -0.0301    1.3496   
     8. B(O   8,C   4)                1.2318  0.066023 -0.0344    1.1975   
     9. B(O   9,C   1)                1.2256  0.057750 -0.0294    1.1962   
    10. B(H  10,N   6)                1.0123  0.014293 -0.0170    0.9953   
    11. B(H  11,N   7)                1.0109  0.015420 -0.0183    0.9927   
    12. B(H  12,C   5)                1.0933  0.005978 -0.0085    1.0847   
    13. B(H  13,C   5)                1.0932  0.000359 -0.0005    1.0927   
    14. B(H  14,C   5)                1.0928  0.002827 -0.0040    1.0888   
    15. B(H  15,C   3)                1.0957  0.002261 -0.0033    1.0925   
    16. B(H  16,C   3)                1.0959  0.005531 -0.0080    1.0880   
    17. B(H  17,C   3)                1.0950  0.007069 -0.0101    1.0849   
    18. B(H  18,C   0)                1.0933  0.003062 -0.0044    1.0890   
    19. B(H  19,C   0)                1.0934  0.004089 -0.0058    1.0876   
    20. B(H  20,C   0)                1.0936  0.002507 -0.0036    1.0900   
    21. B(H  21,C   2)                1.0976  0.003280 -0.0047    1.0929   
    22. A(C   1,C   0,H  19)          109.28  0.001037   -0.18    109.09   
    23. A(C   1,C   0,H  18)          111.84 -0.003020    0.68    112.53   
    24. A(H  18,C   0,H  20)          108.91  0.000936   -0.12    108.79   
    25. A(C   1,C   0,H  20)          108.84  0.000478   -0.23    108.61   
    26. A(H  18,C   0,H  19)          108.29 -0.001231    0.58    108.87   
    27. A(H  19,C   0,H  20)          109.66  0.001881   -0.76    108.90   
    28. A(N   6,C   1,O   9)          124.45  0.009007   -1.14    123.32   
    29. A(C   0,C   1,O   9)          121.67  0.000379   -0.11    121.56   
    30. A(C   0,C   1,N   6)          113.81 -0.009386    1.24    115.05   
    31. A(C   3,C   2,N   6)          113.42 -0.000780    0.33    113.75   
    32. A(N   6,C   2,H  21)          104.56 -0.001185    0.37    104.93   
    33. A(C   4,C   2,H  21)          105.65  0.001199   -0.58    105.07   
    34. A(C   4,C   2,N   6)          109.76  0.001745   -0.28    109.49   
    35. A(C   3,C   2,C   4)          114.90 -0.001533    0.26    115.16   
    36. A(C   3,C   2,H  21)          107.68  0.000691   -0.15    107.54   
    37. A(H  15,C   3,H  17)          106.79 -0.003495    1.21    108.00   
    38. A(C   2,C   3,H  17)          112.07 -0.000007    0.12    112.19   
    39. A(H  15,C   3,H  16)          107.32 -0.001549   -0.03    107.28   
    40. A(C   2,C   3,H  16)          111.19  0.003535   -0.89    110.30   
    41. A(C   2,C   3,H  15)          110.83  0.001985   -0.22    110.61   
    42. A(H  16,C   3,H  17)          108.42 -0.000856   -0.12    108.31   
    43. A(C   2,C   4,N   7)          115.59 -0.006734    1.13    116.72   
    44. A(N   7,C   4,O   8)          122.14  0.001025    0.02    122.17   
    45. A(C   2,C   4,O   8)          121.92  0.005363   -0.56    121.36   
    46. A(H  13,C   5,H  14)          109.55  0.005025   -0.52    109.03   
    47. A(H  12,C   5,H  14)          109.87  0.001297   -0.56    109.31   
    48. A(N   7,C   5,H  14)          108.43 -0.002616    0.46    108.89   
    49. A(H  12,C   5,H  13)          109.63  0.004507   -0.80    108.83   
    50. A(N   7,C   5,H  13)          108.49 -0.013408    2.40    110.89   
    51. A(N   7,C   5,H  12)          110.85  0.004999   -0.94    109.91   
    52. A(C   2,N   6,H  10)          114.63  0.001598   -0.48    114.15   
    53. A(C   1,N   6,H  10)          115.33  0.001503   -0.46    114.86   
    54. A(C   1,N   6,C   2)          122.50 -0.002752    0.20    122.70   
    55. A(C   5,N   7,H  11)          117.86 -0.001771    0.30    118.16   
    56. A(C   4,N   7,H  11)          120.07  0.003181   -0.48    119.59   
    57. A(C   4,N   7,C   5)          121.72 -0.001440    0.21    121.93   
    58. D(N   6,C   1,C   0,H  20)    101.30 -0.000974    0.11    101.42   
    59. D(O   9,C   1,C   0,H  19)     43.95  0.001966   -0.85     43.10   
    60. D(O   9,C   1,C   0,H  20)    -75.78 -0.001217    0.31    -75.47   
    61. D(N   6,C   1,C   0,H  18)    -19.07 -0.000556   -0.01    -19.09   
    62. D(O   9,C   1,C   0,H  18)    163.84 -0.000799    0.19    164.03   
    63. D(N   6,C   1,C   0,H  19)   -138.97  0.002209   -1.05   -140.02   
    64. D(H  17,C   3,C   2,C   4)     47.13 -0.001849    1.26     48.39   
    65. D(H  16,C   3,C   2,H  21)    -73.94  0.000625   -0.12    -74.05   
    66. D(H  15,C   3,C   2,C   4)    -72.06  0.001236   -0.21    -72.27   
    67. D(H  15,C   3,C   2,N   6)    160.54  0.000847   -0.34    160.19   
    68. D(H  16,C   3,C   2,N   6)     41.25 -0.000824    0.43     41.68   
    69. D(H  17,C   3,C   2,N   6)    -80.27 -0.002238    1.13    -79.15   
    70. D(H  15,C   3,C   2,H  21)     45.34  0.002296   -0.89     44.46   
    71. D(H  16,C   3,C   2,C   4)    168.66 -0.000435    0.56    169.22   
    72. D(H  17,C   3,C   2,H  21)    164.54 -0.000789    0.58    165.12   
    73. D(O   8,C   4,C   2,H  21)     93.95 -0.001857    2.86     96.82   
    74. D(O   8,C   4,C   2,N   6)    -18.26 -0.001876    2.85    -15.41   
    75. D(O   8,C   4,C   2,C   3)   -147.50 -0.001059    2.43   -145.07   
    76. D(N   7,C   4,C   2,H  21)    -79.41  0.001409   -2.73    -82.14   
    77. D(N   7,C   4,C   2,N   6)    168.38  0.001390   -2.75    165.63   
    78. D(N   7,C   4,C   2,C   3)     39.14  0.002207   -3.17     35.98   
    79. D(H  10,N   6,C   2,C   4)     69.58  0.000637    0.58     70.16   
    80. D(H  10,N   6,C   2,C   3)   -160.38 -0.000603    0.96   -159.41   
    81. D(C   1,N   6,C   2,H  21)    168.44 -0.002161    2.77    171.21   
    82. D(C   1,N   6,C   2,C   4)    -78.64 -0.000620    2.17    -76.47   
    83. D(C   1,N   6,C   2,C   3)     51.40 -0.001859    2.55     53.96   
    84. D(H  10,N   6,C   1,O   9)   -156.34  0.000328   -0.62   -156.96   
    85. D(H  10,N   6,C   1,C   0)     26.67  0.000390   -0.45     26.22   
    86. D(C   2,N   6,C   1,O   9)     -8.32  0.001608   -2.22    -10.55   
    87. D(H  10,N   6,C   2,H  21)    -43.34 -0.000904    1.18    -42.16   
    88. D(C   2,N   6,C   1,C   0)    174.69  0.001670   -2.05    172.63   
    89. D(H  11,N   7,C   5,H  14)    -32.28  0.001926   -0.43    -32.71   
    90. D(H  11,N   7,C   5,H  13)     86.63 -0.001121    0.57     87.19   
    91. D(C   4,N   7,C   5,H  14)    154.43  0.001997   -0.71    153.72   
    92. D(C   4,N   7,C   5,H  13)    -86.66 -0.001050    0.28    -86.38   
    93. D(C   4,N   7,C   5,H  12)     33.76 -0.000993    0.26     34.02   
    94. D(H  11,N   7,C   4,O   8)   -170.12  0.003139   -4.91   -175.04   
    95. D(H  11,N   7,C   5,H  12)   -152.95 -0.001064    0.54   -152.41   
    96. D(H  11,N   7,C   4,C   2)      3.22  0.000179    0.65      3.87   
    97. D(C   5,N   7,C   4,O   8)      3.01  0.002732   -4.57     -1.56   
    98. D(C   5,N   7,C   4,C   2)    176.36 -0.000228    0.99    177.35   
    ----------------------------------------------------------------------------

         *************************************************************
         *                GEOMETRY OPTIMIZATION CYCLE   2            *
         *************************************************************
---------------------------------
CARTESIAN COORDINATES (ANGSTROEM)
---------------------------------
  C     -0.843712    2.924065   -1.905099
  C      0.202493    2.974238   -0.818577
  C      1.119466    1.781175    1.139561
  C      1.417326    3.030631    1.966645
  C      2.347090    1.099575    0.522666
  C      4.688031    0.449901    0.812652
  N      0.113028    1.985120    0.114612
  N      3.477911    1.108242    1.259259
  O      2.291144    0.571585   -0.550646
  O      1.006597    3.858203   -0.764064
  H     -0.319069    1.147088   -0.204072
  H      3.463676    1.491702    2.174760
  H      4.767801    0.516383   -0.267109
  H      4.687812   -0.603778    1.102184
  H      5.545618    0.942633    1.267944
  H      1.891379    2.761141    2.913274
  H      0.493980    3.554276    2.205205
  H      2.074859    3.719167    1.446466
  H     -1.311808    1.944384   -1.988639
  H     -0.380653    3.174955   -2.856645
  H     -1.613257    3.662900   -1.681262
  H      0.688790    1.035657    1.812696

----------------------------
CARTESIAN COORDINATES (A.U.)
----------------------------
  NO LB      ZA    FRAG     MASS         X           Y           Z
   0 C     6.0000    0    12.011   -1.594384    5.525683   -3.600115
   1 C     6.0000    0    12.011    0.382656    5.620495   -1.546887
   2 C     6.0000    0    12.011    2.115484    3.365932    2.153459
   3 C     6.0000    0    12.011    2.678357    5.727062    3.716420
   4 C     6.0000    0    12.011    4.435357    2.077895    0.987695
   5 C     6.0000    0    12.011    8.859094    0.850190    1.535690
   6 N     7.0000    0    14.007    0.213593    3.751333    0.216585
   7 N     7.0000    0    14.007    6.572300    2.094273    2.379656
   8 O     8.0000    0    15.999    4.329634    1.080140   -1.040570
   9 O     8.0000    0    15.999    1.902192    7.290947   -1.443871
  10 H     1.0000    0     1.008   -0.602954    2.167682   -0.385639
  11 H     1.0000    0     1.008    6.545399    2.818908    4.109700
  12 H     1.0000    0     1.008    9.009838    0.975822   -0.504764
  13 H     1.0000    0     1.008    8.858680   -1.140975    2.082825
  14 H     1.0000    0     1.008   10.479699    1.781319    2.396067
  15 H     1.0000    0     1.008    3.574189    5.217800    5.505291
  16 H     1.0000    0     1.008    0.933488    6.716608    4.167233
  17 H     1.0000    0     1.008    3.920915    7.028207    2.733424
  18 H     1.0000    0     1.008   -2.478957    3.674352   -3.757982
  19 H     1.0000    0     1.008   -0.719330    5.999795   -5.398277
  20 H     1.0000    0     1.008   -3.048614    6.921879   -3.177125
  21 H     1.0000    0     1.008    1.301624    1.957108    3.425498

--------------------------------
INTERNAL COORDINATES (ANGSTROEM)
--------------------------------
 C      0   0   0     0.000000000000     0.00000000     0.00000000
 C      1   0   0     1.509168810943     0.00000000     0.00000000
 C      2   1   0     2.469523392305   144.31227407     0.00000000
[...]
     49      -0.011884   0.187584  -0.001385  -0.017695  -0.050962   0.272693
     50      -0.010013   0.161514  -0.001192  -0.017725  -0.047848   0.255437
     51      -0.015430   0.202971  -0.001718  -0.065492  -0.017233   0.088125
     52      -0.022503   0.300977  -0.002589  -0.094503  -0.020988   0.107112
     53       0.015691  -0.208560   0.001887   0.067923   0.014413  -0.073146
     54      -0.002326   0.002738   0.379424   0.001696  -0.000630  -0.003384
     55      -0.002664   0.003084   0.439137   0.001980  -0.000761  -0.003781
     56      -0.000010   0.000059   0.000508   0.000006   0.000021   0.000007
     57       0.001517  -0.002003  -0.240244  -0.000118  -0.000459   0.001395
     58       0.000074  -0.000046  -0.008797  -0.000151  -0.000019   0.000205
     59      -0.002458   0.003109   0.403603   0.000724   0.000686  -0.002309
     60      -0.001912   0.002326   0.320946   0.001000   0.000235   0.003375
     61       0.003513  -0.004238  -0.576154  -0.001689  -0.000385  -0.005888
     62       0.000457  -0.000652  -0.068274   0.000029  -0.000042  -0.000744
     63      -0.005718   0.053859  -0.002233   0.444914  -0.000793   0.007967
     64      -0.009513   0.082241  -0.002644   0.689373  -0.001459   0.015842
     65       0.007561  -0.068067   0.001727  -0.543947   0.001238  -0.011845
                 60         61         62         63         64         65    
      0       0.003222   0.002534   0.068210   0.000109   0.000398   0.000001
      1      -0.090315   0.000479   0.020779   0.000020   0.000278  -0.000007
      2      -0.023766  -0.002381  -0.061962  -0.000100  -0.000123  -0.000006
      3       0.000488  -0.000494   0.001193   0.000051  -0.000067   0.000042
      4      -0.001076  -0.000332   0.000913   0.000012  -0.000364  -0.000057
      5       0.001185  -0.000034  -0.000908  -0.000005   0.001685  -0.000002
      6       0.000082  -0.003424   0.000146   0.000037  -0.001398   0.000270
      7       0.000105  -0.005105  -0.000005   0.000107   0.000694  -0.000053
      8      -0.000066   0.004506  -0.000020  -0.000033  -0.001193   0.000150
      9       0.000823  -0.052685   0.002007   0.000005  -0.000125  -0.000346
     10      -0.000276  -0.047603   0.001735   0.000183  -0.000118  -0.000074
     11       0.000014   0.060825  -0.002205  -0.000209  -0.000186   0.000162
     12      -0.000044  -0.000255   0.000028  -0.000266  -0.000062  -0.001272
     13      -0.000094  -0.000348   0.000022  -0.001042   0.000084   0.000281
     14      -0.000072  -0.000393  -0.000043  -0.000790  -0.000062  -0.000242
     15      -0.000085   0.000008   0.000097  -0.038483   0.000037   0.001470
     16      -0.000172  -0.000225   0.000125  -0.032032  -0.000038  -0.000566
     17       0.000113  -0.000165   0.000087  -0.079510   0.000002  -0.000659
     18       0.000418   0.000106  -0.000353   0.000006   0.053800  -0.000142
     19       0.000397   0.000029  -0.000530   0.000004   0.049705  -0.000064
     20      -0.000176  -0.000429   0.000190   0.000029   0.011707  -0.000026
     21       0.000030   0.000102  -0.000028   0.000845  -0.000046   0.008437
     22       0.000017  -0.000021  -0.000006   0.000493   0.000191   0.056922
     23       0.000002  -0.000203   0.000017   0.000945   0.000127   0.046699
     24       0.000025   0.000100  -0.000023  -0.000390  -0.000087  -0.000564
     25       0.000051   0.000075  -0.000001   0.000433   0.000056  -0.000694
     26       0.000058   0.000085   0.000024   0.000437  -0.000016  -0.000787
     27       0.000089   0.000292  -0.000576  -0.000029  -0.000779  -0.000029
     28       0.000165   0.000199  -0.000305   0.000002  -0.000575   0.000050
     29      -0.000050   0.000624   0.000238   0.000003   0.000249   0.000006
     30      -0.003162  -0.000131   0.003258   0.000040  -0.711051   0.002195
     31      -0.002388  -0.000296   0.001608  -0.000132  -0.677015   0.001712
     32      -0.002038   0.000723   0.001930  -0.000033  -0.174382   0.000537
     33       0.000035   0.001826  -0.000007  -0.005304  -0.000234  -0.103644
     34       0.000038   0.000131   0.000091  -0.001987  -0.002211  -0.771353
     35       0.000131   0.002933  -0.000130  -0.007385  -0.001631  -0.623405
     36      -0.000139   0.000306  -0.000173   0.119392   0.000015   0.002459
     37      -0.000260   0.000730  -0.000267   0.223033  -0.000008  -0.002944
     38      -0.000759   0.002693  -0.001219   0.853922   0.000015  -0.006126
     39      -0.000294  -0.000640   0.000095   0.021025  -0.000112   0.001835
     40       0.001107   0.001725  -0.000307  -0.118089   0.000253  -0.002136
     41      -0.000733  -0.000930   0.000244   0.062903  -0.000137   0.001321
     42       0.001382   0.000435  -0.001105   0.320441  -0.000177  -0.005772
     43       0.001152   0.000436  -0.000908   0.275891  -0.000048  -0.003093
     44       0.000165   0.000098  -0.000114   0.027306   0.000012  -0.000731
     45      -0.002257  -0.133134   0.004281   0.000916  -0.000507  -0.004295
     46       0.001484   0.070543  -0.002490  -0.000495   0.000293   0.000526
     47      -0.003524  -0.187260   0.006076   0.001522  -0.000883   0.000405
     48      -0.006866   0.327153  -0.012529  -0.000071   0.000039  -0.000024
     49       0.002865  -0.144704   0.005561   0.000044   0.000291   0.000761
     50       0.002698  -0.118221   0.004622   0.000073   0.000363   0.000691
     51      -0.000512   0.432318  -0.015952  -0.001156   0.000182  -0.000626
     52      -0.001122   0.641677  -0.023685  -0.001673   0.000330   0.001783
     53       0.000904  -0.428655   0.015655   0.001081   0.000062  -0.001513
     54       0.428799  -0.009940  -0.321596  -0.000490  -0.003981   0.000036
     55       0.478409  -0.011729  -0.372513  -0.000571  -0.005895   0.000011
     56      -0.001177  -0.000013  -0.004427  -0.000014   0.001978  -0.000020
     57      -0.119294  -0.016185  -0.423263  -0.000655  -0.000469  -0.000007
     58      -0.018639  -0.000683  -0.017604  -0.000042  -0.000166  -0.000038
     59       0.206161   0.027977   0.736381   0.001176   0.000326   0.000036
     60      -0.358810  -0.003464  -0.071348  -0.000196  -0.000051  -0.000066
     61       0.622692   0.006858   0.143605   0.000360  -0.000327   0.000084
     62       0.069558   0.000504   0.007911   0.000026   0.000342  -0.000004
     63      -0.000389   0.039574  -0.000989   0.000197  -0.002374   0.000085
     64      -0.000333   0.063971  -0.001617   0.000097  -0.006985   0.000508
     65       0.000109  -0.045358   0.001164  -0.000131   0.004333  -0.000243


-----------
IR SPECTRUM
-----------

 Mode   freq       eps      Int      T**2         TX        TY        TZ
       cm**-1   L/(mol*cm) km/mol    a.u.
----------------------------------------------------------------------------
  8:     29.42   0.002863   14.47  0.030369  (-0.043515  0.135834 -0.100124)
  9:     80.28   0.000439    2.22  0.001707  ( 0.023627  0.000300 -0.033890)
 10:     86.03   0.003218   16.26  0.011673  ( 0.074885 -0.057700 -0.052308)
 11:    165.51   0.000244    1.23  0.000460  (-0.001391  0.012717 -0.017224)
 12:    200.67   0.000834    4.22  0.001298  (-0.010973 -0.005795  0.033817)
 13:    230.59   0.000182    0.92  0.000246  ( 0.004090 -0.013288 -0.007288)
 14:    291.43   0.000694    3.51  0.000743  (-0.002660 -0.017956  0.020334)
 15:    332.69   0.004790   24.21  0.004493  ( 0.042195 -0.032835  0.040429)
 16:    373.52   0.001042    5.27  0.000871  (-0.026480 -0.007586  0.010587)
 17:    396.71   0.007236   36.57  0.005692  ( 0.069302 -0.028813  0.007692)
 18:    440.51   0.018735   94.68  0.013272  (-0.007099 -0.055914  0.100477)
 19:    506.31   0.009896   50.01  0.006100  (-0.058961  0.011872  0.049821)
 20:    521.57   0.004832   24.42  0.002891  (-0.053044  0.004110  0.007791)
 21:    539.39   0.004800   24.26  0.002777  ( 0.029245 -0.014921 -0.041222)
 22:    626.00   0.000935    4.72  0.000466  ( 0.021468 -0.002192  0.000592)
 23:    682.23   0.001319    6.67  0.000604  (-0.011404  0.019858  0.008896)
 24:    725.00   0.004501   22.75  0.001937  (-0.022389  0.008213  0.036996)
 25:    862.15   0.002512   12.69  0.000909  (-0.001582  0.023499 -0.018825)
 26:    912.62   0.001088    5.50  0.000372  ( 0.016103 -0.008781 -0.005963)
 27:    998.02   0.000383    1.93  0.000120  ( 0.003799  0.002803  0.009866)
 28:   1030.99   0.000446    2.26  0.000135  ( 0.007998  0.003499 -0.007675)
 29:   1108.57   0.002164   10.94  0.000609  ( 0.002902 -0.016892  0.017759)
 30:   1110.79   0.001837    9.29  0.000516  ( 0.021763  0.002041  0.006196)
 31:   1151.22   0.003917   19.79  0.001062  ( 0.022602 -0.021140 -0.010196)
 32:   1182.86   0.000783    3.96  0.000207  (-0.008286  0.008378  0.008231)
 33:   1234.09   0.004100   20.72  0.001037  (-0.028717  0.011072  0.009458)
 34:   1246.36   0.000796    4.02  0.000199  ( 0.011660  0.006617  0.004430)
 35:   1266.98   0.001651    8.34  0.000407  (-0.018234  0.006591 -0.005548)
 36:   1290.28   0.001917    9.69  0.000464  (-0.019662  0.005168 -0.007098)
 37:   1384.38   0.033122  167.39  0.007466  ( 0.061667 -0.036777  0.048072)
 38:   1400.89   0.011028   55.73  0.002457  ( 0.017182  0.011261 -0.045105)
 39:   1449.71   0.001909    9.65  0.000411  (-0.011990 -0.000576 -0.016333)
 40:   1491.79   0.002881   14.56  0.000603  ( 0.006273 -0.018310  0.015103)
 41:   1515.69   0.004610   23.30  0.000949  ( 0.010243 -0.018812  0.022144)
 42:   1530.73   0.008816   44.55  0.001797  (-0.010379  0.001132 -0.041089)
 43:   1564.72   0.002957   14.95  0.000590  (-0.013375  0.001752 -0.020195)
 44:   1567.53   0.002337   11.81  0.000465  (-0.019437 -0.004291  0.008305)
 45:   1588.83   0.002801   14.16  0.000550  ( 0.013324  0.015077  0.012056)
 46:   1593.86   0.004285   21.65  0.000839  ( 0.026760  0.002265 -0.010851)
 47:   1599.63   0.002110   10.66  0.000412  ( 0.008830  0.010228 -0.015137)
 48:   1615.84   0.000170    0.86  0.000033  (-0.004778 -0.002460 -0.001990)
 49:   1619.03   0.001755    8.87  0.000338  (-0.012261  0.013098  0.004042)
 50:   1685.61   0.055309  279.51  0.010240  ( 0.021862 -0.057059  0.080659)
 51:   1715.08   0.056206  284.04  0.010227  (-0.100778 -0.000661 -0.008383)
 52:   1958.46   0.078556  396.99  0.012517  ( 0.047809  0.074268  0.068672)
 53:   1971.88   0.050077  253.07  0.007925  ( 0.075990  0.043536 -0.015974)
 54:   3188.24   0.013016   65.78  0.001274  ( 0.030618 -0.016525  0.007965)
 55:   3190.45   0.004352   21.99  0.000426  (-0.003026 -0.007562 -0.018955)
 56:   3199.98   0.001139    5.75  0.000111  (-0.009729 -0.000762 -0.003975)
 57:   3220.89   0.003586   18.12  0.000347  (-0.003318 -0.014483  0.011256)
 58:   3270.15   0.006405   32.37  0.000611  (-0.014757 -0.018000  0.008334)
 59:   3270.70   0.006117   30.91  0.000584  ( 0.016677 -0.015674  0.007735)
 60:   3287.39   0.002435   12.31  0.000231  (-0.004627 -0.014146 -0.003104)
 61:   3312.03   0.001397    7.06  0.000132  (-0.006020 -0.003908  0.008952)
 62:   3315.13   0.001679    8.49  0.000158  ( 0.009471  0.005744 -0.005949)
 63:   3324.17   0.001294    6.54  0.000121  (-0.004912 -0.003255 -0.009314)
 64:   3890.79   0.010765   54.40  0.000863  (-0.020568 -0.020985 -0.000213)
 65:   3923.91   0.011259   56.90  0.000895  (-0.007521 -0.022059 -0.018770)

* The epsilon (eps) is given for a Dirac delta lineshape.
** The dipole moment derivative (T) already includes vibrational overlap.

The first frequency considered to be a vibration is 8
The total number of vibrations considered is 58


--------------------------
THERMOCHEMISTRY AT 298.15K
--------------------------

Temperature         ... 298.15 K
Pressure            ... 1.00 atm
Total Mass          ... 144.17 AMU

Throughout the following assumptions are being made:
  (1) The electronic state is orbitally nondegenerate
  (2) There are no thermally accessible electronically excited states
  (3) Hindered rotations indicated by low frequency modes are not
      treated as such but are treated as vibrations and this may
      cause some error
  (4) All equations used are the standard statistical mechanics
      equations for an ideal gas
  (5) All vibrations are strictly harmonic

freq.      29.42  E(vib)   ...       0.55 
freq.      80.28  E(vib)   ...       0.49 
freq.      86.03  E(vib)   ...       0.48 
freq.     165.51  E(vib)   ...       0.39 
freq.     200.67  E(vib)   ...       0.35 
freq.     230.59  E(vib)   ...       0.32 
freq.     291.43  E(vib)   ...       0.27 
freq.     332.69  E(vib)   ...       0.24 
freq.     373.52  E(vib)   ...       0.21 
freq.     396.71  E(vib)   ...       0.20 
freq.     440.51  E(vib)   ...       0.17 
freq.     506.31  E(vib)   ...       0.14 
freq.     521.57  E(vib)   ...       0.13 
freq.     539.39  E(vib)   ...       0.12 
freq.     626.00  E(vib)   ...       0.09 
freq.     682.23  E(vib)   ...       0.08 
freq.     725.00  E(vib)   ...       0.06 
freq.     862.15  E(vib)   ...       0.04 
freq.     912.62  E(vib)   ...       0.03 
freq.     998.02  E(vib)   ...       0.02 
freq.    1030.99  E(vib)   ...       0.02 
freq.    1108.57  E(vib)   ...       0.02 
freq.    1110.79  E(vib)   ...       0.01 
freq.    1151.22  E(vib)   ...       0.01 
freq.    1182.86  E(vib)   ...       0.01 
freq.    1234.09  E(vib)   ...       0.01 
freq.    1246.36  E(vib)   ...       0.01 
freq.    1266.98  E(vib)   ...       0.01 
freq.    1290.28  E(vib)   ...       0.01 
freq.    1384.38  E(vib)   ...       0.00 
freq.    1400.89  E(vib)   ...       0.00 
freq.    1449.71  E(vib)   ...       0.00 
freq.    1491.79  E(vib)   ...       0.00 
freq.    1515.69  E(vib)   ...       0.00 
freq.    1530.73  E(vib)   ...       0.00 
freq.    1564.72  E(vib)   ...       0.00 
freq.    1567.53  E(vib)   ...       0.00 
freq.    1588.83  E(vib)   ...       0.00 
freq.    1593.86  E(vib)   ...       0.00 
freq.    1599.63  E(vib)   ...       0.00 
freq.    1615.84  E(vib)   ...       0.00 
freq.    1619.03  E(vib)   ...       0.00 
freq.    1685.61  E(vib)   ...       0.00 
freq.    1715.08  E(vib)   ...       0.00 
freq.    1958.46  E(vib)   ...       0.00 
freq.    1971.88  E(vib)   ...       0.00 
freq.    3188.24  E(vib)   ...       0.00 
freq.    3190.45  E(vib)   ...       0.00 
freq.    3199.98  E(vib)   ...       0.00 
freq.    3220.89  E(vib)   ...       0.00 
freq.    3270.15  E(vib)   ...       0.00 
freq.    3270.70  E(vib)   ...       0.00 
freq.    3287.39  E(vib)   ...       0.00 
freq.    3312.03  E(vib)   ...       0.00 
freq.    3315.13  E(vib)   ...       0.00 
freq.    3324.17  E(vib)   ...       0.00 
freq.    3890.79  E(vib)   ...       0.00 
freq.    3923.91  E(vib)   ...       0.00 

------------
INNER ENERGY
------------

The inner energy is: U= E(el) + E(ZPE) + E(vib) + E(rot) + E(trans)
    E(el)   - is the total energy from the electronic structure calculation
              = E(kin-el) + E(nuc-el) + E(el-el) + E(nuc-nuc)
    E(ZPE)  - the the zero temperature vibrational energy from the frequency calculation
    E(vib)  - the the finite temperature correction to E(ZPE) due to population
              of excited vibrational states
    E(rot)  - is the rotational thermal energy
    E(trans)- is the translational thermal energy

Summary of contributions to the inner energy U:
Electronic energy                ...   -492.49107341 Eh
Zero point energy                ...      0.19881619 Eh     124.76 kcal/mol
Thermal vibrational correction   ...      0.00721826 Eh       4.53 kcal/mol
Thermal rotational correction    ...      0.00141627 Eh       0.89 kcal/mol
Thermal translational correction ...      0.00141627 Eh       0.89 kcal/mol
-----------------------------------------------------------------------
Total thermal energy                   -492.28220641 Eh


Summary of corrections to the electronic energy:
(perhaps to be used in another calculation)
Total thermal correction                  0.01005081 Eh       6.31 kcal/mol
Non-thermal (ZPE) correction              0.19881619 Eh     124.76 kcal/mol
-----------------------------------------------------------------------
Total correction                          0.20886700 Eh     131.07 kcal/mol


--------
ENTHALPY
--------

The enthalpy is H = U + kB*T
                kB is Boltzmann's constant
Total free energy                 ...   -492.28220641 Eh 
Thermal Enthalpy correction       ...      0.00094421 Eh       0.59 kcal/mol
-----------------------------------------------------------------------
Total Enthalpy                    ...   -492.28126220 Eh


Note: Only C1 symmetry has been detected, increase convergence thresholds 
      if your molecule has a higher symmetry. Symmetry factor of 1.0 is   
      used for the rotational entropy correction. 
 

Note: Rotational entropy computed according to Herzberg 
Infrared and Raman Spectra, Chapter V,1, Van Nostrand Reinhold, 1945 
Point Group:  C1, Symmetry Number:   1  
Rotational constants in cm-1:     0.071770     0.029010     0.026156 

Vibrational entropy computed according to the QRRHO of S. Grimme
Chem.Eur.J. 2012 18 9955


-------
ENTROPY
-------

The entropy contributions are T*S = T*(S(el)+S(vib)+S(rot)+S(trans))
     S(el)   - electronic entropy
     S(vib)  - vibrational entropy
     S(rot)  - rotational entropy
     S(trans)- translational entropy
The entropies will be listed as multiplied by the temperature to get
units of energy

Electronic entropy                ...      0.00000000 Eh      0.00 kcal/mol
Vibrational entropy               ...      0.01260868 Eh      7.91 kcal/mol
Rotational entropy                ...      0.01414584 Eh      8.88 kcal/mol
Translational entropy             ...      0.01938939 Eh     12.17 kcal/mol
-----------------------------------------------------------------------
Final entropy term                ...      0.04614391 Eh     28.96 kcal/mol

In case the symmetry of your molecule has not been determined correctly
or in case you have a reason to use a different symmetry number we print 
out the resulting rotational entropy values for sn=1,12 :
 --------------------------------------------------------
|  sn= 1 | S(rot)=       0.01414584 Eh      8.88 kcal/mol|
|  sn= 2 | S(rot)=       0.01349139 Eh      8.47 kcal/mol|
|  sn= 3 | S(rot)=       0.01310855 Eh      8.23 kcal/mol|
|  sn= 4 | S(rot)=       0.01283693 Eh      8.06 kcal/mol|
|  sn= 5 | S(rot)=       0.01262624 Eh      7.92 kcal/mol|
|  sn= 6 | S(rot)=       0.01245410 Eh      7.82 kcal/mol|
|  sn= 7 | S(rot)=       0.01230855 Eh      7.72 kcal/mol|
|  sn= 8 | S(rot)=       0.01218247 Eh      7.64 kcal/mol|
|  sn= 9 | S(rot)=       0.01207126 Eh      7.57 kcal/mol|
|  sn=10 | S(rot)=       0.01197179 Eh      7.51 kcal/mol|
|  sn=11 | S(rot)=       0.01188180 Eh      7.46 kcal/mol|
|  sn=12 | S(rot)=       0.01179964 Eh      7.40 kcal/mol|
 --------------------------------------------------------


-------------------
GIBBS FREE ENERGY
-------------------

The Gibbs free energy is G = H - T*S

Total enthalpy                    ...   -492.28126220 Eh 
Total entropy correction          ...     -0.04614391 Eh    -28.96 kcal/mol
-----------------------------------------------------------------------
Final Gibbs free energy         ...   -492.32740611 Eh

For completeness - the Gibbs free energy minus the electronic energy
G-E(el)                           ...      0.16366730 Eh    102.70 kcal/mol


Timings for individual modules:

Sum of individual times         ...     2745.040 sec (=  45.751 min)
GTO integral calculation        ...        4.755 sec (=   0.079 min)   0.2 %
SCF iterations                  ...      755.615 sec (=  12.594 min)  27.5 %
SCF Gradient evaluation         ...      334.361 sec (=   5.573 min)  12.2 %
Geometry relaxation             ...        0.587 sec (=   0.010 min)   0.0 %
Analytical frequency calculation...     1649.722 sec (=  27.495 min)  60.1 %
                             ****ORCA TERMINATED NORMALLY****
TOTAL RUN TIME: 0 days 0 hours 45 minutes 46 seconds 418 msec
