
                                 *****************
                                 * O   R   C   A *
                                 *****************

                                            #,                                       
                                            ###                                      
                                            ####                                     
                                            #####                                    
                                            ######                                   
                                           ########,                                 
                                     ,,################,,,,,                         
                               ,,#################################,,                 
                          ,,##########################################,,             
                       ,#########################################, ''#####,          
                    ,#############################################,,   '####,        
                  ,##################################################,,,,####,       
                ,###########''''           ''''###############################       
              ,#####''   ,,,,##########,,,,          '''####'''          '####       
            ,##' ,,,,###########################,,,                        '##       
           ' ,,###''''                  '''############,,,                           
         ,,##''                                '''############,,,,        ,,,,,,###''
      ,#''                                            '''#######################'''  
     '                                                          ''''####''''         
             ,#######,   #######,   ,#######,      ##                                
            ,#'     '#,  ##    ##  ,#'     '#,    #''#        ######   ,####,        
            ##       ##  ##   ,#'  ##            #'  '#       #        #'  '#        
            ##       ##  #######   ##           ,######,      #####,   #    #        
            '#,     ,#'  ##    ##  '#,     ,#' ,#      #,         ##   #,  ,#        
             '#######'   ##     ##  '#######'  #'      '#     #####' # '####'        



                  #######################################################
                  #                        -***-                        #
                  #          Department of theory and spectroscopy      #
                  #    Directorship and core code : Frank Neese         #
                  #        Max Planck Institute fuer Kohlenforschung    #
                  #                Kaiser Wilhelm Platz 1               #
                  #                 D-45470 Muelheim/Ruhr               #
                  #                      Germany                        #
                  #                                                     #
                  #                  All rights reserved                #
                  #                        -***-                        #
                  #######################################################


                         Program Version 5.0.4 -  RELEASE  -


 With contributions from (in alphabetic order):
   Daniel Aravena         : Magnetic Suceptibility
   Michael Atanasov       : Ab Initio Ligand Field Theory (pilot matlab implementation)
   Alexander A. Auer      : GIAO ZORA, VPT2 properties, NMR spectrum
   Ute Becker             : Parallelization
   Giovanni Bistoni       : ED, misc. LED, open-shell LED, HFLD
   Martin Brehm           : Molecular dynamics
   Dmytro Bykov           : SCF Hessian
   Vijay G. Chilkuri      : MRCI spin determinant printing, contributions to CSF-ICE
   Dipayan Datta          : RHF DLPNO-CCSD density
   Achintya Kumar Dutta   : EOM-CC, STEOM-CC
   Dmitry Ganyushin       : Spin-Orbit,Spin-Spin,Magnetic field MRCI
   Miquel Garcia          : C-PCM and meta-GGA Hessian, CC/C-PCM, Gaussian charge scheme
   Yang Guo               : DLPNO-NEVPT2, F12-NEVPT2, CIM, IAO-localization
   Andreas Hansen         : Spin unrestricted coupled pair/coupled cluster methods
   Benjamin Helmich-Paris : MC-RPA, TRAH-SCF, COSX integrals
   Lee Huntington         : MR-EOM, pCC
   Robert Izsak           : Overlap fitted RIJCOSX, COSX-SCS-MP3, EOM
   Marcus Kettner         : VPT2
   Christian Kollmar      : KDIIS, OOCD, Brueckner-CCSD(T), CCSD density, CASPT2, CASPT2-K
   Simone Kossmann        : Meta GGA functionals, TD-DFT gradient, OOMP2, MP2 Hessian
   Martin Krupicka        : Initial AUTO-CI
   Lucas Lang             : DCDCAS
   Marvin Lechner         : AUTO-CI (C++ implementation), FIC-MRCC
   Dagmar Lenk            : GEPOL surface, SMD
   Dimitrios Liakos       : Extrapolation schemes; Compound Job, initial MDCI parallelization
   Dimitrios Manganas     : Further ROCIS development; embedding schemes
   Dimitrios Pantazis     : SARC Basis sets
   Anastasios Papadopoulos: AUTO-CI, single reference methods and gradients
   Taras Petrenko         : DFT Hessian,TD-DFT gradient, ASA, ECA, R-Raman, ABS, FL, XAS/XES, NRVS
   Peter Pinski           : DLPNO-MP2, DLPNO-MP2 Gradient
   Christoph Reimann      : Effective Core Potentials
   Marius Retegan         : Local ZFS, SOC
   Christoph Riplinger    : Optimizer, TS searches, QM/MM, DLPNO-CCSD(T), (RO)-DLPNO pert. Triples
   Tobias Risthaus        : Range-separated hybrids, TD-DFT gradient, RPA, STAB
   Michael Roemelt        : Original ROCIS implementation
   Masaaki Saitow         : Open-shell DLPNO-CCSD energy and density
   Barbara Sandhoefer     : DKH picture change effects
   Avijit Sen             : IP-ROCIS
   Kantharuban Sivalingam : CASSCF convergence, NEVPT2, FIC-MRCI
   Bernardo de Souza      : ESD, SOC TD-DFT
   Georgi Stoychev        : AutoAux, RI-MP2 NMR, DLPNO-MP2 response
   Willem Van den Heuvel  : Paramagnetic NMR
   Boris Wezisla          : Elementary symmetry handling
   Frank Wennmohs         : Technical directorship


 We gratefully acknowledge several colleagues who have allowed us to
 interface, adapt or use parts of their codes:
   Stefan Grimme, W. Hujo, H. Kruse, P. Pracht,  : VdW corrections, initial TS optimization,
                  C. Bannwarth, S. Ehlert          DFT functionals, gCP, sTDA/sTD-DF
   Ed Valeev, F. Pavosevic, A. Kumar             : LibInt (2-el integral package), F12 methods
   Garnet Chan, S. Sharma, J. Yang, R. Olivares  : DMRG
   Ulf Ekstrom                                   : XCFun DFT Library
   Mihaly Kallay                                 : mrcc  (arbitrary order and MRCC methods)
   Jiri Pittner, Ondrej Demel                    : Mk-CCSD
   Frank Weinhold                                : gennbo (NPA and NBO analysis)
   Christopher J. Cramer and Donald G. Truhlar   : smd solvation model
   Lars Goerigk                                  : TD-DFT with DH, B97 family of functionals
   V. Asgeirsson, H. Jonsson                     : NEB implementation
   FAccTs GmbH                                   : IRC, NEB, NEB-TS, DLPNO-Multilevel, CI-OPT
                                                   MM, QMMM, 2- and 3-layer-ONIOM, Crystal-QMMM,
                                                   LR-CPCM, SF, NACMEs, symmetry and pop. for TD-DFT,
                                                   nearIR, NL-DFT gradient (VV10), updates on ESD,
                                                   ML-optimized integration grids
   S Lehtola, MJT Oliveira, MAL Marques          : LibXC Library
   Liviu Ungur et al                             : ANISO software


 Your calculation uses the libint2 library for the computation of 2-el integrals
 For citations please refer to: http://libint.valeyev.net

 Your ORCA version has been built with support for libXC version: 5.1.0
 For citations please refer to: https://tddft.org/programs/libxc/

 This ORCA versions uses:
   CBLAS   interface :  Fast vector & matrix operations
   LAPACKE interface :  Fast linear algebra routines
   SCALAPACK package :  Parallel linear algebra routines
   Shared memory     :  Shared parallel matrices
   BLAS/LAPACK       :  OpenBLAS 0.3.15  USE64BITINT DYNAMIC_ARCH NO_AFFINITY Haswell SINGLE_THREADED
        Core in use  :  Haswell
   Copyright (c) 2011-2014, The OpenBLAS Project


================================================================================

----- Orbital basis set information -----
Your calculation utilizes the basis: def2-SVP
   F. Weigend and R. Ahlrichs, Phys. Chem. Chem. Phys. 7, 3297 (2005).

================================================================================
                                        WARNINGS
                       Please study these warnings very carefully!
================================================================================

WARNING: Old DensityContainer found on disk!
         Will remove this file - 
         If you want to keep old densities, please start your calculation with a different basename. 


WARNING: Geometry Optimization
  ===> : Switching off AutoStart
         For restart on a previous wavefunction, please use MOREAD

INFO   : the flag for use of the SHARK integral package has been found!

================================================================================
                                       INPUT FILE
================================================================================
NAME = 54_neg74.inp
|  1> # avogadro generated ORCA input file 
|  2> # Basic Mode
|  3> # 
|  4> ! RHF OPT FREQ def2-SVP 
|  5> 
|  6> * xyz 0 1
|  7>    C       -1.11118        3.34008       -1.80358
|  8>    C        0.10821        3.18467       -0.93523
|  9>    C        1.15945        1.68727        0.79623
| 10>    C        1.43079        2.77681        1.82897
| 11>    C        2.47354        1.21360        0.13863
| 12>    C        4.28799        1.83474       -1.40389
| 13>    N        0.11368        2.04715       -0.16845
| 14>    N        2.99447        2.05673       -0.81621
| 15>    O        3.06060        0.20632        0.53139
| 16>    O        1.01201        4.01488       -0.92353
| 17>    H       -0.60176        1.35114       -0.33450
| 18>    H        2.55078        2.96963       -0.93194
| 19>    H        4.43137        0.77181       -1.61581
| 20>    H        5.05379        2.17185       -0.70040
| 21>    H        4.35438        2.41277       -2.32835
| 22>    H        2.09128        2.39845        2.61705
| 23>    H        0.49959        3.11416        2.29612
| 24>    H        1.92543        3.65041        1.39324
| 25>    H       -1.58326        2.37484       -2.00720
| 26>    H       -0.81717        3.78258       -2.75959
| 27>    H       -1.82849        3.99413       -1.30101
| 28>    H        0.75214        0.81512        1.32373
| 29> *
| 30> 
| 31> 
| 32>                          ****END OF INPUT****
================================================================================

                       *****************************
                       * Geometry Optimization Run *
                       *****************************

Geometry optimization settings:
Update method            Update   .... BFGS
Choice of coordinates    CoordSys .... Z-matrix Internals
Initial Hessian          InHess   .... Almoef's Model

Convergence Tolerances:
Energy Change            TolE     ....  5.0000e-06 Eh
Max. Gradient            TolMAXG  ....  3.0000e-04 Eh/bohr
RMS Gradient             TolRMSG  ....  1.0000e-04 Eh/bohr
Max. Displacement        TolMAXD  ....  4.0000e-03 bohr
RMS Displacement         TolRMSD  ....  2.0000e-03 bohr
Strict Convergence                ....  False
------------------------------------------------------------------------------
                        ORCA OPTIMIZATION COORDINATE SETUP
------------------------------------------------------------------------------

The optimization will be done in new redundant internal coordinates
Making redundant internal coordinates   ...  (new redundants) done
Evaluating the initial hessian          ...  (Almloef) done
Evaluating the coordinates              ...  done
Calculating the B-matrix                .... done
Calculating the G-matrix                .... done
Diagonalizing the G-matrix              .... done
Small eigenvalue found = 9.655e-03
Small eigenvalue found = 2.504e-02
The first mode is                       ....   38
The number of degrees of freedom        ....   60

    -----------------------------------------------------------------
                    Redundant Internal Coordinates


    -----------------------------------------------------------------
         Definition                    Initial Value    Approx d2E/dq
    -----------------------------------------------------------------
      1. B(C   1,C   0)                  1.5050         0.409473   
      2. B(C   3,C   2)                  1.5255         0.379745   
      3. B(C   4,C   2)                  1.5439         0.354975   
      4. B(N   6,C   2)                  1.4676         0.420843   
      5. B(N   6,C   1)                  1.3718         0.598212   
      6. B(N   7,C   5)                  1.4380         0.469133   
      7. B(N   7,C   4)                  1.3762         0.588675   
      8. B(O   8,C   4)                  1.2302         1.006347   
      9. B(O   9,C   1)                  1.2273         1.017348   
     10. B(H  10,N   6)                  1.0119         0.429764   
     11. B(H  11,N   7)                  1.0216         0.414675   
     12. B(H  12,C   5)                  1.0933         0.355771   
     13. B(H  13,C   5)                  1.0932         0.355949   
     14. B(H  14,C   5)                  1.0923         0.357050   
     15. B(H  15,C   3)                  1.0957         0.352688   
     16. B(H  16,C   3)                  1.0951         0.353461   
     17. B(H  17,C   3)                  1.0944         0.354329   
     18. B(H  18,C   0)                  1.0936         0.355340   
     19. B(H  19,C   0)                  1.0937         0.355224   
     20. B(H  20,C   0)                  1.0931         0.356008   
     21. B(H  21,C   2)                  1.0976         0.350140   
     22. A(C   1,C   0,H  19)          109.1658         0.328517   
     23. A(C   1,C   0,H  18)          111.4709         0.328534   
     24. A(H  18,C   0,H  20)          109.2953         0.289713   
     25. A(C   1,C   0,H  20)          109.1588         0.328636   
     26. A(H  18,C   0,H  19)          108.0824         0.289613   
     27. A(H  19,C   0,H  20)          109.6454         0.289698   
     28. A(N   6,C   1,O   9)          123.5491         0.465608   
     29. A(C   0,C   1,O   9)          122.1614         0.437510   
     30. A(C   0,C   1,N   6)          114.2895         0.398043   
     31. A(C   3,C   2,N   6)          113.3657         0.369570   
     32. A(N   6,C   2,H  21)          104.2598         0.327244   
     33. A(C   4,C   2,H  21)          106.0671         0.320142   
     34. A(C   4,C   2,N   6)          113.6890         0.365319   
     35. A(C   3,C   2,C   4)          110.8591         0.361206   
     36. A(C   3,C   2,H  21)          107.9477         0.323698   
     37. A(H  15,C   3,H  17)          106.8322         0.289158   
     38. A(C   2,C   3,H  17)          112.3936         0.324331   
     39. A(H  15,C   3,H  16)          108.1895         0.289047   
     40. A(C   2,C   3,H  16)          110.9505         0.324200   
     41. A(C   2,C   3,H  15)          110.3353         0.324084   
     42. A(H  16,C   3,H  17)          107.9555         0.289258   
     43. A(C   2,C   4,N   7)          115.4511         0.387126   
     44. A(N   7,C   4,O   8)          122.8531         0.463318   
     45. A(C   2,C   4,O   8)          121.4244         0.425595   
     46. A(H  13,C   5,H  14)          109.8087         0.289923   
     47. A(H  12,C   5,H  14)          110.0269         0.289901   
     48. A(N   7,C   5,H  14)          108.5939         0.334257   
     49. A(H  12,C   5,H  13)          109.4320         0.289760   
     50. A(N   7,C   5,H  13)          108.6356         0.334085   
     51. A(N   7,C   5,H  12)          110.3206         0.334058   
     52. A(C   2,N   6,H  10)          116.2975         0.335646   
     53. A(C   1,N   6,H  10)          118.4128         0.356081   
     54. A(C   1,N   6,C   2)          125.0010         0.397406   
     55. A(C   5,N   7,H  11)          118.8378         0.339748   
     56. A(C   4,N   7,H  11)          117.4947         0.352967   
     57. A(C   4,N   7,C   5)          121.9694         0.403935   
     58. D(N   6,C   1,C   0,H  20)     97.1239         0.012419   
     59. D(O   9,C   1,C   0,H  19)     37.0642         0.012419   
     60. D(O   9,C   1,C   0,H  20)    -82.7740         0.012419   
     61. D(N   6,C   1,C   0,H  18)    -23.7100         0.012419   
     62. D(O   9,C   1,C   0,H  18)    156.3921         0.012419   
     63. D(N   6,C   1,C   0,H  19)   -143.0379         0.012419   
     64. D(H  17,C   3,C   2,C   4)     58.9968         0.011494   
     65. D(H  16,C   3,C   2,H  21)    -64.2510         0.011494   
     66. D(H  15,C   3,C   2,C   4)    -60.1279         0.011494   
     67. D(H  15,C   3,C   2,N   6)    170.6016         0.011494   
     68. D(H  16,C   3,C   2,N   6)     50.7092         0.011494   
     69. D(H  17,C   3,C   2,N   6)    -70.2737         0.011494   
     70. D(H  15,C   3,C   2,H  21)     55.6414         0.011494   
     71. D(H  16,C   3,C   2,C   4)    179.9797         0.011494   
     72. D(H  17,C   3,C   2,H  21)    174.7661         0.011494   
     73. D(O   8,C   4,C   2,H  21)    -19.8629         0.009497   
     74. D(O   8,C   4,C   2,N   6)   -133.8344         0.009497   
     75. D(O   8,C   4,C   2,C   3)     97.0678         0.009497   
     76. D(N   7,C   4,C   2,H  21)    165.9576         0.009497   
     77. D(N   7,C   4,C   2,N   6)     51.9861         0.009497   
     78. D(N   7,C   4,C   2,C   3)    -77.1117         0.009497   
     79. D(H  10,N   6,C   2,C   4)    100.0227         0.015102   
     80. D(H  10,N   6,C   2,C   3)   -132.1620         0.015102   
     81. D(C   1,N   6,C   2,H  21)    171.2701         0.015102   
     82. D(C   1,N   6,C   2,C   4)    -73.6841         0.015102   
     83. D(C   1,N   6,C   2,C   3)     54.1312         0.015102   
     84. D(H  10,N   6,C   1,O   9)   -171.3039         0.028823   
     85. D(H  10,N   6,C   1,C   0)      8.7998         0.028823   
     86. D(C   2,N   6,C   1,O   9)      2.2810         0.028823   
     87. D(H  10,N   6,C   2,H  21)    -15.0231         0.015102   
     88. D(C   2,N   6,C   1,C   0)   -177.6153         0.028823   
     89. D(H  11,N   7,C   5,H  14)    -33.0209         0.018803   
     90. D(H  11,N   7,C   5,H  13)     86.3707         0.018803   
     91. D(C   4,N   7,C   5,H  14)    162.2048         0.018803   
     92. D(C   4,N   7,C   5,H  13)    -78.4036         0.018803   
     93. D(C   4,N   7,C   5,H  12)     41.5487         0.018803   
     94. D(H  11,N   7,C   4,O   8)   -166.5091         0.027849   
     95. D(H  11,N   7,C   5,H  12)   -153.6770         0.018803   
     96. D(H  11,N   7,C   4,C   2)      7.5781         0.027849   
     97. D(C   5,N   7,C   4,O   8)     -1.5404         0.027849   
     98. D(C   5,N   7,C   4,C   2)    172.5468         0.027849   
    -----------------------------------------------------------------

Number of atoms                         .... 22
Number of degrees of freedom            .... 98

         *************************************************************
         *                GEOMETRY OPTIMIZATION CYCLE   1            *
         *************************************************************
---------------------------------
CARTESIAN COORDINATES (ANGSTROEM)
---------------------------------
  C     -1.111180    3.340080   -1.803580
  C      0.108210    3.184670   -0.935230
  C      1.159450    1.687270    0.796230
  C      1.430790    2.776810    1.828970
  C      2.473540    1.213600    0.138630
  C      4.287990    1.834740   -1.403890
  N      0.113680    2.047150   -0.168450
  N      2.994470    2.056730   -0.816210
  O      3.060600    0.206320    0.531390
  O      1.012010    4.014880   -0.923530
  H     -0.601760    1.351140   -0.334500
  H      2.550780    2.969630   -0.931940
  H      4.431370    0.771810   -1.615810
  H      5.053790    2.171850   -0.700400
  H      4.354380    2.412770   -2.328350
  H      2.091280    2.398450    2.617050
  H      0.499590    3.114160    2.296120
  H      1.925430    3.650410    1.393240
  H     -1.583260    2.374840   -2.007200
  H     -0.817170    3.782580   -2.759590
  H     -1.828490    3.994130   -1.301010
  H      0.752140    0.815120    1.323730

----------------------------
CARTESIAN COORDINATES (A.U.)
----------------------------
  NO LB      ZA    FRAG     MASS         X           Y           Z
   0 C     6.0000    0    12.011   -2.099826    6.311836   -3.408272
   1 C     6.0000    0    12.011    0.204487    6.018154   -1.767329
   2 C     6.0000    0    12.011    2.191043    3.188478    1.504657
   3 C     6.0000    0    12.011    2.703801    5.247410    3.456252
   4 C     6.0000    0    12.011    4.674313    2.293372    0.261973
   5 C     6.0000    0    12.011    8.103127    3.467156   -2.652968
   6 N     7.0000    0    14.007    0.214824    3.868553   -0.318324
   7 N     7.0000    0    14.007    5.658728    3.886656   -1.542413
   8 O     8.0000    0    15.999    5.783696    0.389888    1.004182
   9 O     8.0000    0    15.999    1.912422    7.587024   -1.745219
  10 H     1.0000    0     1.008   -1.137162    2.553285   -0.632113
  11 H     1.0000    0     1.008    4.820276    5.611787   -1.761111
  12 H     1.0000    0     1.008    8.374076    1.458510   -3.053438
  13 H     1.0000    0     1.008    9.550279    4.104202   -1.323564
  14 H     1.0000    0     1.008    8.228586    4.559475   -4.399944
  15 H     1.0000    0     1.008    3.951946    4.532414    4.945508
  16 H     1.0000    0     1.008    0.944088    5.884910    4.339038
  17 H     1.0000    0     1.008    3.638535    6.898275    2.632842
  18 H     1.0000    0     1.008   -2.991928    4.487797   -3.793058
  19 H     1.0000    0     1.008   -1.544228    7.148040   -5.214869
  20 H     1.0000    0     1.008   -3.455345    7.547812   -2.458553
  21 H     1.0000    0     1.008    1.421339    1.540354    2.501487

--------------------------------
INTERNAL COORDINATES (ANGSTROEM)
--------------------------------
 C      0   0   0     0.000000000000     0.00000000     0.00000000
 C      1   0   0     1.505023575463     0.00000000     0.00000000
 C      2   1   0     2.518981149036   142.75878642     0.00000000
 C      3   2   1     1.525540794210    96.60349429   232.08593648
 C      3   2   1     1.543902055507   104.17073495   118.57473782
 C      5   3   2     2.461180946720   144.78668609    32.18359278
 N      2   1   3     1.371835718918   114.28947608     1.88038339
 N      5   3   2     1.376210626103   115.45114863    25.78167334
 O      5   3   2     1.230249104694   121.42444494   199.96115090
 O      2   1   3     1.227289686301   122.16136088   181.98248478
 H      7   2   1     1.011858150236   118.41279005     8.79980641
 H      8   5   3     1.021587323238   117.49468333     7.57810293
 H      6   5   3     1.093292319419    88.44152943   206.75770285
 H      6   5   3     1.093156426226   101.00841236    97.26077356
 H      6   5   3     1.092315249642   135.13643621   324.03609211
 H      4   3   2     1.095661177600   110.33531686   191.94275087
 H      4   3   2     1.095065105370   110.95046850    72.05034158
 H      4   3   2     1.094397698508   112.39356185   311.06743002
 H      1   2   3     1.093621912911   111.47085488   334.40962468
 H      1   2   3     1.093710770816   109.16583468   215.08166957
 H      1   2   3     1.093110993221   109.15878850    95.24347946
 H      3   2   1     1.097635325871   130.37607396   352.45970423

---------------------------
INTERNAL COORDINATES (A.U.)
---------------------------
 C      0   0   0     0.000000000000     0.00000000     0.00000000
 C      1   0   0     2.844082382720     0.00000000     0.00000000
 C      2   1   0     4.760184508189   142.75878642     0.00000000
 C      3   2   1     2.882854307182    96.60349429   232.08593648
 C      3   2   1     2.917552062507   104.17073495   118.57473782
 C      5   3   2     4.650957955327   144.78668609    32.18359278
 N      2   1   3     2.592393809486   114.28947608     1.88038339
 N      5   3   2     2.600661185928   115.45114863    25.78167334
 O      5   3   2     2.324833884373   121.42444494   199.96115090
 O      2   1   3     2.319241394094   122.16136088   181.98248478
 H      7   2   1     1.912134790323   118.41279005     8.79980641
 H      8   5   3     1.930520262805   117.49468333     7.57810293
 H      6   5   3     2.066023068021    88.44152943   206.75770285
 H      6   5   3     2.065766267104   101.00841236    97.26077356
 H      6   5   3     2.064176673729   135.13643621   324.03609211
 H      4   3   2     2.070499561234   110.33531686   191.94275087
 H      4   3   2     2.069373147964   110.95046850    72.05034158
 H      4   3   2     2.068111931774   112.39356185   311.06743002
 H      1   2   3     2.066645909458   111.47085488   334.40962468
 H      1   2   3     2.066813826563   109.16583468   215.08166957
 H      1   2   3     2.065680411166   109.15878850    95.24347946
 H      3   2   1     2.074230160814   130.37607396   352.45970423

---------------------
BASIS SET INFORMATION
---------------------
There are 4 groups of distinct atoms

 Group   1 Type C   : 7s4p1d contracted to 3s2p1d pattern {511/31/1}
 Group   2 Type N   : 7s4p1d contracted to 3s2p1d pattern {511/31/1}
 Group   3 Type O   : 7s4p1d contracted to 3s2p1d pattern {511/31/1}
 Group   4 Type H   : 4s1p contracted to 2s1p pattern {31/1}

Atom   0C    basis set group =>   1
Atom   1C    basis set group =>   1
Atom   2C    basis set group =>   1
Atom   3C    basis set group =>   1
Atom   4C    basis set group =>   1
Atom   5C    basis set group =>   1
Atom   6N    basis set group =>   2
Atom   7N    basis set group =>   2
Atom   8O    basis set group =>   3
Atom   9O    basis set group =>   3
Atom  10H    basis set group =>   4
Atom  11H    basis set group =>   4
Atom  12H    basis set group =>   4
Atom  13H    basis set group =>   4
Atom  14H    basis set group =>   4
Atom  15H    basis set group =>   4
Atom  16H    basis set group =>   4
Atom  17H    basis set group =>   4
Atom  18H    basis set group =>   4
Atom  19H    basis set group =>   4
Atom  20H    basis set group =>   4
Atom  21H    basis set group =>   4
------------------------------------------------------------------------------
                           ORCA GTO INTEGRAL CALCULATION
------------------------------------------------------------------------------
------------------------------------------------------------------------------
                   ___                                                        
                  /   \      - P O W E R E D   B Y -                         
                 /     \                                                     
                 |  |  |   _    _      __       _____    __    __             
                 |  |  |  | |  | |    /  \     |  _  \  |  |  /  |          
                  \  \/   | |  | |   /    \    | | | |  |  | /  /          
                 / \  \   | |__| |  /  /\  \   | |_| |  |  |/  /          
                |  |  |   |  __  | /  /__\  \  |    /   |      \           
                |  |  |   | |  | | |   __   |  |    \   |  |\   \          
                \     /   | |  | | |  |  |  |  | |\  \  |  | \   \       
                 \___/    |_|  |_| |__|  |__|  |_| \__\ |__|  \__/        
                                                                              
                      - O R C A' S   B I G   F R I E N D -                    
                                      &                                       
                       - I N T E G R A L  F E E D E R -                       
                                                                              
 v1 FN, 2020, v2 2021                                                         
------------------------------------------------------------------------------


Reading SHARK input file 54_neg74.SHARKINP.tmp ... ok
----------------------
SHARK INTEGRAL PACKAGE
----------------------

Number of atoms                             ...     22
Number of basis functions                   ...    200
Number of shells                            ...     96
Maximum angular momentum                    ...      2
Integral batch strategy                     ... SHARK/LIBINT Hybrid
RI-J (if used) integral strategy            ... SPLIT-RIJ (Revised 2003 algorithm where possible)
Printlevel                                  ...      1
Contraction scheme used                     ... SEGMENTED contraction
Coulomb Range Separation                    ... NOT USED
Exchange Range Separation                   ... NOT USED
Finite Nucleus Model                        ... NOT USED
Auxiliary Coulomb fitting basis             ... NOT available
Auxiliary J/K fitting basis                 ... NOT available
Auxiliary Correlation fitting basis         ... NOT available
Auxiliary 'external' fitting basis          ... NOT available
Integral threshold                          ...     2.500000e-11
Primitive cut-off                           ...     2.500000e-12
Primitive pair pre-selection threshold      ...     2.500000e-12

Calculating pre-screening integrals         ... done (  0.1 sec) Dimension = 96
Organizing shell pair data                  ... done (  0.1 sec)
Shell pair information
Total number of shell pairs                 ...      4656
Shell pairs after pre-screening             ...      4235
Total number of primitive shell pairs       ...     16456
Primitive shell pairs kept                  ...     10601
          la=0 lb=0:   1366 shell pairs
          la=1 lb=0:   1574 shell pairs
          la=1 lb=1:    469 shell pairs
          la=2 lb=0:    491 shell pairs
          la=2 lb=1:    284 shell pairs
          la=2 lb=2:     51 shell pairs

Calculating one electron integrals          ... done (  0.0 sec)
Calculating Nuclear repulsion               ... done (  0.0 sec) ENN=    566.533776183038 Eh

SHARK setup successfully completed in   0.3 seconds

Maximum memory used throughout the entire GTOINT-calculation: 26.9 MB
-------------------------------------------------------------------------------
                                 ORCA SCF
-------------------------------------------------------------------------------

------------
SCF SETTINGS
------------
Hamiltonian:
 Ab initio Hamiltonian  Method          .... Hartree-Fock(GTOs)


General Settings:
 Integral files         IntName         .... 54_neg74
 Hartree-Fock type      HFTyp           .... RHF
 Total Charge           Charge          ....    0
 Multiplicity           Mult            ....    1
 Number of Electrons    NEL             ....   78
 Basis Dimension        Dim             ....  200
 Nuclear Repulsion      ENuc            ....    566.5337761830 Eh

Convergence Acceleration:
 DIIS                   CNVDIIS         .... on
   Start iteration      DIISMaxIt       ....    12
   Startup error        DIISStart       ....  0.200000
   # of expansion vecs  DIISMaxEq       ....     5
   Bias factor          DIISBfac        ....   1.050
   Max. coefficient     DIISMaxC        ....  10.000
 Trust-Rad. Augm. Hess. CNVTRAH         .... auto
   Auto Start mean grad. ratio tolernc. ....  1.125000
   Auto Start start iteration           ....    20
   Auto Start num. interpolation iter.  ....    10
   Max. Number of Micro iterations      ....    16
   Max. Number of Macro iterations      .... Maxiter - #DIIS iter
   Number of Davidson start vectors     ....     2
   Converg. threshold I  (grad. norm)   ....   1.000e-05
   Converg. threshold II (energy diff.) ....   1.000e-08
   Grad. Scal. Fac. for Micro threshold ....   0.100
   Minimum threshold for Micro iter.    ....   0.010
   NR start threshold (gradient norm)   ....   0.001
   Initial trust radius                 ....   0.400
   Minimum AH scaling param. (alpha)    ....   1.000
   Maximum AH scaling param. (alpha)    .... 1000.000
   Orbital update algorithm             .... Taylor
   White noise on init. David. guess    .... on
   Maximum white noise                  ....   0.010
   Quad. conv. algorithm                .... NR
 SOSCF                  CNVSOSCF        .... on
   Start iteration      SOSCFMaxIt      ....   150
   Startup grad/error   SOSCFStart      ....  0.003300
 Level Shifting         CNVShift        .... on
   Level shift para.    LevelShift      ....    0.2500
   Turn off err/grad.   ShiftErr        ....    0.0010
 Zerner damping         CNVZerner       .... off
 Static damping         CNVDamp         .... on
   Fraction old density DampFac         ....    0.7000
   Max. Damping (<1)    DampMax         ....    0.9800
   Min. Damping (>=0)   DampMin         ....    0.0000
   Turn off err/grad.   DampErr         ....    0.1000
 Fernandez-Rico         CNVRico         .... off

SCF Procedure:
 Maximum # iterations   MaxIter         ....   125
 SCF integral mode      SCFMode         .... Direct
   Integral package                     .... SHARK and LIBINT hybrid scheme
 Reset frequency        DirectResetFreq ....    20
 Integral Threshold     Thresh          ....  2.500e-11 Eh
 Primitive CutOff       TCut            ....  2.500e-12 Eh

Convergence Tolerance:
 Convergence Check Mode ConvCheckMode   .... Total+1el-Energy
 Convergence forced     ConvForced      .... 0
 Energy Change          TolE            ....  1.000e-08 Eh
 1-El. energy change                    ....  1.000e-05 Eh
 Orbital Gradient       TolG            ....  1.000e-05
 Orbital Rotation angle TolX            ....  1.000e-05
 DIIS Error             TolErr          ....  5.000e-07


Diagonalization of the overlap matrix:
Smallest eigenvalue                        ... 1.669e-03
Time for diagonalization                   ...    0.008 sec
Threshold for overlap eigenvalues          ... 1.000e-08
Number of eigenvalues below threshold      ... 0
Time for construction of square roots      ...    0.006 sec
Total time needed                          ...    0.014 sec

Time for model grid setup =    0.479 sec

------------------------------
INITIAL GUESS: MODEL POTENTIAL
------------------------------
Loading Hartree-Fock densities                     ... done
Calculating cut-offs                               ... done
Initializing the effective Hamiltonian             ... done
Setting up the integral package (SHARK)            ... done
Starting the Coulomb interaction                   ... done (   0.3 sec)
Reading the grid                                   ... done
Mapping shells                                     ... done
Starting the XC term evaluation                    ... done (   0.3 sec)
Transforming the Hamiltonian                       ... done (   0.0 sec)
Diagonalizing the Hamiltonian                      ... done (   0.0 sec)
Back transforming the eigenvectors                 ... done (   0.0 sec)
Now organizing SCF variables                       ... done
                      ------------------
                      INITIAL GUESS DONE (   1.1 sec)
                      ------------------
--------------
SCF ITERATIONS
--------------
ITER       Energy         Delta-E        Max-DP      RMS-DP      [F,P]     Damp
               ***  Starting incremental Fock matrix formation  ***
  0   -492.0646826762   0.000000000000 0.06509968  0.00204043  0.2542556 0.7000
  1   -492.2132203027  -0.148537626504 0.04610035  0.00152449  0.1515314 0.7000
                               ***Turning on DIIS***
  2   -492.3018082387  -0.088587935926 0.09151048  0.00323091  0.0817581 0.0000
  3   -491.7897894979   0.512018740764 0.03539124  0.00099678  0.0503303 0.0000
  4   -492.5007379277  -0.710948429850 0.01030948  0.00032369  0.0056218 0.0000
  5   -492.4866728179   0.014065109889 0.00587992  0.00017073  0.0049021 0.0000
                      *** Initiating the SOSCF procedure ***
                           *** Shutting down DIIS ***
                      *** Re-Reading the Fockian *** 
                      *** Removing any level shift *** 
ITER      Energy       Delta-E        Grad      Rot      Max-DP    RMS-DP
  6   -492.48575264   0.0009201824  0.001521  0.001521  0.003574  0.000099
               *** Restarting incremental Fock matrix formation ***
  7   -492.48618699  -0.0004343558  0.000625  0.001131  0.001849  0.000052
  8   -492.48620750  -0.0000205133  0.000326  0.001324  0.001817  0.000056
  9   -492.48621570  -0.0000081993  0.000096  0.000089  0.000461  0.000009
 10   -492.48621616  -0.0000004513  0.000048  0.000042  0.000152  0.000004
 11   -492.48621629  -0.0000001332  0.000009  0.000014  0.000027  0.000001
 12   -492.48621630  -0.0000000103  0.000003  0.000010  0.000024  0.000001
                  ***Gradient check signals convergence***
              ***Rediagonalizing the Fockian in SOSCF/NRSCF***

               *****************************************************
               *                     SUCCESS                       *
               *           SCF CONVERGED AFTER  13 CYCLES          *
               *****************************************************


----------------
TOTAL SCF ENERGY
----------------

Total Energy       :         -492.48621630 Eh          -13401.23125 eV

Components:
Nuclear Repulsion  :          566.53377618 Eh           15416.16779 eV
Electronic Energy  :        -1059.01999248 Eh          -28817.39904 eV
One Electron Energy:        -1795.82065496 Eh          -48866.76436 eV
Two Electron Energy:          736.80066248 Eh           20049.36532 eV

Virial components:
Potential Energy   :         -982.59684749 Eh          -26737.81954 eV
Kinetic Energy     :          490.11063119 Eh           13336.58829 eV
Virial Ratio       :            2.00484704


---------------
SCF CONVERGENCE
---------------

  Last Energy change         ...   -2.0455e-09  Tolerance :   1.0000e-08
  Last MAX-Density change    ...    5.7323e-06  Tolerance :   1.0000e-07
  Last RMS-Density change    ...    1.4039e-07  Tolerance :   5.0000e-09
  Last Orbital Gradient      ...    1.4815e-06  Tolerance :   1.0000e-05
  Last Orbital Rotation      ...    1.7914e-06  Tolerance :   1.0000e-05

             **** THE GBW FILE WAS UPDATED (54_neg74.gbw) ****
             **** DENSITY 54_neg74.scfp WAS UPDATED ****
             **** ENERGY FILE WAS UPDATED (54_neg74.en.tmp) ****
             **** THE GBW FILE WAS UPDATED (54_neg74.gbw) ****
             **** DENSITY 54_neg74.scfp WAS UPDATED ****
----------------
ORBITAL ENERGIES
----------------

  NO   OCC          E(Eh)            E(eV) 
   0   2.0000     -20.533096      -558.7339 
   1   2.0000     -20.505005      -557.9696 
   2   2.0000     -15.605395      -424.6444 
   3   2.0000     -15.559968      -423.4082 
   4   2.0000     -11.375995      -309.5566 
   5   2.0000     -11.342885      -308.6556 
   6   2.0000     -11.291789      -307.2652 
   7   2.0000     -11.257632      -306.3357 
   8   2.0000     -11.252050      -306.1839 
   9   2.0000     -11.233618      -305.6823 
  10   2.0000      -1.385450       -37.7000 
  11   2.0000      -1.348363       -36.6908 
  12   2.0000      -1.236827       -33.6558 
  13   2.0000      -1.194175       -32.4951 
  14   2.0000      -1.053820       -28.6759 
  15   2.0000      -0.994038       -27.0492 
  16   2.0000      -0.933466       -25.4009 
  17   2.0000      -0.877663       -23.8824 
  18   2.0000      -0.800841       -21.7920 
  19   2.0000      -0.758659       -20.6442 
  20   2.0000      -0.722688       -19.6653 
  21   2.0000      -0.706592       -19.2274 
  22   2.0000      -0.654693       -17.8151 
  23   2.0000      -0.632739       -17.2177 
  24   2.0000      -0.623849       -16.9758 
  25   2.0000      -0.613265       -16.6878 
  26   2.0000      -0.604859       -16.4591 
  27   2.0000      -0.589589       -16.0435 
  28   2.0000      -0.576082       -15.6760 
  29   2.0000      -0.569821       -15.5056 
  30   2.0000      -0.544957       -14.8290 
  31   2.0000      -0.541057       -14.7229 
  32   2.0000      -0.528134       -14.3713 
  33   2.0000      -0.515954       -14.0398 
  34   2.0000      -0.498441       -13.5633 
  35   2.0000      -0.445744       -12.1293 
  36   2.0000      -0.434825       -11.8322 
  37   2.0000      -0.394273       -10.7287 
  38   2.0000      -0.371380       -10.1058 
  39   0.0000       0.147649         4.0177 
  40   0.0000       0.159340         4.3359 
  41   0.0000       0.186206         5.0669 
  42   0.0000       0.194590         5.2951 
  43   0.0000       0.204265         5.5583 
  44   0.0000       0.219105         5.9621 
  45   0.0000       0.237776         6.4702 
  46   0.0000       0.253907         6.9092 
  47   0.0000       0.263424         7.1681 
  48   0.0000       0.264897         7.2082 
  49   0.0000       0.276603         7.5267 
  50   0.0000       0.281885         7.6705 
  51   0.0000       0.297131         8.0854 
  52   0.0000       0.319634         8.6977 
  53   0.0000       0.354647         9.6504 
  54   0.0000       0.364789         9.9264 
  55   0.0000       0.386968        10.5299 
  56   0.0000       0.419721        11.4212 
  57   0.0000       0.427278        11.6268 
  58   0.0000       0.449859        12.2413 
  59   0.0000       0.493524        13.4295 
  60   0.0000       0.518574        14.1111 
  61   0.0000       0.574055        15.6208 
  62   0.0000       0.604837        16.4584 
  63   0.0000       0.626243        17.0409 
  64   0.0000       0.626909        17.0591 
  65   0.0000       0.640892        17.4395 
  66   0.0000       0.644341        17.5334 
  67   0.0000       0.660024        17.9602 
  68   0.0000       0.673568        18.3287 
  69   0.0000       0.695469        18.9247 
  70   0.0000       0.713870        19.4254 
  71   0.0000       0.720345        19.6016 
  72   0.0000       0.792009        21.5517 
  73   0.0000       0.793993        21.6057 
  74   0.0000       0.818087        22.2613 
  75   0.0000       0.835575        22.7372 
  76   0.0000       0.850141        23.1335 
  77   0.0000       0.854717        23.2580 
  78   0.0000       0.857036        23.3211 
  79   0.0000       0.877882        23.8884 
  80   0.0000       0.878374        23.9018 
  81   0.0000       0.886476        24.1223 
  82   0.0000       0.890675        24.2365 
  83   0.0000       0.894311        24.3354 
  84   0.0000       0.906585        24.6694 
  85   0.0000       0.910198        24.7677 
  86   0.0000       0.916442        24.9377 
  87   0.0000       0.927837        25.2477 
  88   0.0000       0.932517        25.3751 
  89   0.0000       0.945013        25.7151 
  90   0.0000       0.957161        26.0457 
  91   0.0000       0.963074        26.2066 
  92   0.0000       0.991184        26.9715 
  93   0.0000       1.013687        27.5838 
  94   0.0000       1.061919        28.8963 
  95   0.0000       1.098875        29.9019 
  96   0.0000       1.124400        30.5965 
  97   0.0000       1.132345        30.8127 
  98   0.0000       1.150570        31.3086 
  99   0.0000       1.178843        32.0779 
 100   0.0000       1.229293        33.4508 
 101   0.0000       1.240125        33.7455 
 102   0.0000       1.258340        34.2412 
 103   0.0000       1.319496        35.9053 
 104   0.0000       1.350455        36.7478 
 105   0.0000       1.380552        37.5667 
 106   0.0000       1.402662        38.1684 
 107   0.0000       1.428370        38.8679 
 108   0.0000       1.450321        39.4652 
 109   0.0000       1.464005        39.8376 
 110   0.0000       1.502899        40.8959 
 111   0.0000       1.523259        41.4500 
 112   0.0000       1.560636        42.4671 
 113   0.0000       1.576590        42.9012 
 114   0.0000       1.603877        43.6437 
 115   0.0000       1.627632        44.2901 
 116   0.0000       1.668109        45.3915 
 117   0.0000       1.686883        45.9024 
 118   0.0000       1.692646        46.0592 
 119   0.0000       1.706604        46.4391 
 120   0.0000       1.757381        47.8208 
 121   0.0000       1.791221        48.7416 
 122   0.0000       1.803486        49.0753 
 123   0.0000       1.811726        49.2996 
 124   0.0000       1.848414        50.2979 
 125   0.0000       1.891613        51.4734 
 126   0.0000       1.899856        51.6977 
 127   0.0000       1.918471        52.2042 
 128   0.0000       1.999502        54.4092 
 129   0.0000       2.014988        54.8306 
 130   0.0000       2.025630        55.1202 
 131   0.0000       2.035250        55.3820 
 132   0.0000       2.043383        55.6033 
 133   0.0000       2.053713        55.8844 
 134   0.0000       2.064677        56.1827 
 135   0.0000       2.078209        56.5510 
 136   0.0000       2.081348        56.6364 
 137   0.0000       2.089228        56.8508 
 138   0.0000       2.102736        57.2184 
 139   0.0000       2.128019        57.9064 
 140   0.0000       2.143663        58.3320 
 141   0.0000       2.167547        58.9820 
 142   0.0000       2.180705        59.3400 
 143   0.0000       2.193476        59.6875 
 144   0.0000       2.230674        60.6997 
 145   0.0000       2.235915        60.8423 
 146   0.0000       2.263403        61.5903 
 147   0.0000       2.285109        62.1810 
 148   0.0000       2.301247        62.6201 
 149   0.0000       2.310815        62.8805 
 150   0.0000       2.330273        63.4099 
 151   0.0000       2.363776        64.3216 
 152   0.0000       2.402891        65.3860 
 153   0.0000       2.406070        65.4725 
 154   0.0000       2.447230        66.5925 
 155   0.0000       2.462786        67.0158 
 156   0.0000       2.503399        68.1210 
 157   0.0000       2.562585        69.7315 
 158   0.0000       2.591920        70.5297 
 159   0.0000       2.611927        71.0741 
 160   0.0000       2.649679        72.1014 
 161   0.0000       2.667349        72.5823 
 162   0.0000       2.720737        74.0350 
 163   0.0000       2.733424        74.3802 
 164   0.0000       2.743613        74.6575 
 165   0.0000       2.770029        75.3763 
 166   0.0000       2.813236        76.5521 
 167   0.0000       2.818935        76.7071 
 168   0.0000       2.871659        78.1418 
 169   0.0000       2.892202        78.7008 
 170   0.0000       2.919668        79.4482 
 171   0.0000       2.952293        80.3360 
 172   0.0000       3.006834        81.8201 
 173   0.0000       3.010438        81.9182 
 174   0.0000       3.035018        82.5870 
 175   0.0000       3.051794        83.0435 
 176   0.0000       3.095578        84.2350 
 177   0.0000       3.116641        84.8081 
 178   0.0000       3.125184        85.0406 
 179   0.0000       3.155045        85.8531 
 180   0.0000       3.185402        86.6792 
 181   0.0000       3.220735        87.6406 
 182   0.0000       3.246966        88.3544 
 183   0.0000       3.264492        88.8313 
 184   0.0000       3.282589        89.3238 
 185   0.0000       3.294173        89.6390 
 186   0.0000       3.315214        90.2116 
 187   0.0000       3.336476        90.7901 
 188   0.0000       3.349519        91.1451 
 189   0.0000       3.416448        92.9663 
 190   0.0000       3.467751        94.3623 
 191   0.0000       3.540846        96.3513 
 192   0.0000       3.555016        96.7369 
 193   0.0000       3.579794        97.4111 
 194   0.0000       3.634697        98.9051 
 195   0.0000       3.680750       100.1583 
 196   0.0000       3.921420       106.7072 
 197   0.0000       3.942524       107.2815 
 198   0.0000       4.070054       110.7518 
 199   0.0000       4.077850       110.9640 

                    ********************************
                    * MULLIKEN POPULATION ANALYSIS *
                    ********************************

-----------------------
MULLIKEN ATOMIC CHARGES
-----------------------
   0 C :   -0.020870
   1 C :    0.378857
   2 C :    0.070075
   3 C :   -0.010445
   4 C :    0.422200
   5 C :    0.171415
   6 N :   -0.465263
   7 N :   -0.500620
   8 O :   -0.455919
   9 O :   -0.495229
  10 H :    0.168109
  11 H :    0.210482
  12 H :    0.052590
  13 H :    0.031383
  14 H :    0.030091
  15 H :    0.053971
  16 H :    0.041232
  17 H :    0.065927
  18 H :    0.038218
  19 H :    0.074575
  20 H :    0.080095
  21 H :    0.059124
Sum of atomic charges:   -0.0000000

--------------------------------
MULLIKEN REDUCED ORBITAL CHARGES
--------------------------------
  0 C s       :     3.019720  s :     3.019720
      pz      :     0.999343  p :     2.967551
      px      :     0.948048
      py      :     1.020160
      dz2     :     0.005161  d :     0.033599
      dxz     :     0.010374
      dyz     :     0.005286
      dx2y2   :     0.005780
      dxy     :     0.006999
  1 C s       :     3.066273  s :     3.066273
      pz      :     0.767247  p :     2.417130
      px      :     0.887765
      py      :     0.762118
      dz2     :     0.014686  d :     0.137740
      dxz     :     0.025721
      dyz     :     0.027124
      dx2y2   :     0.045259
      dxy     :     0.024950
  2 C s       :     3.093526  s :     3.093526
      pz      :     0.879842  p :     2.770963
      px      :     0.851378
      py      :     1.039744
      dz2     :     0.009203  d :     0.065436
      dxz     :     0.019697
      dyz     :     0.013230
      dx2y2   :     0.012253
      dxy     :     0.011053
  3 C s       :     3.043804  s :     3.043804
      pz      :     0.937331  p :     2.930063
      px      :     1.016817
      py      :     0.975915
      dz2     :     0.003162  d :     0.036577
      dxz     :     0.009034
      dyz     :     0.011123
      dx2y2   :     0.006049
      dxy     :     0.007208
  4 C s       :     3.038442  s :     3.038442
      pz      :     0.747482  p :     2.405926
      px      :     0.851143
      py      :     0.807301
      dz2     :     0.024057  d :     0.133433
      dxz     :     0.016482
      dyz     :     0.030661
      dx2y2   :     0.030940
      dxy     :     0.031294
  5 C s       :     2.994164  s :     2.994164
      pz      :     0.958436  p :     2.781630
      px      :     0.791010
      py      :     1.032185
      dz2     :     0.007699  d :     0.052790
      dxz     :     0.015109
      dyz     :     0.007684
      dx2y2   :     0.016541
      dxy     :     0.005758
  6 N s       :     3.433561  s :     3.433561
      pz      :     1.454301  p :     4.008825
      px      :     1.325030
      py      :     1.229494
      dz2     :     0.003320  d :     0.022877
      dxz     :     0.003724
      dyz     :     0.005939
      dx2y2   :     0.004517
      dxy     :     0.005376
  7 N s       :     3.439869  s :     3.439869
      pz      :     1.484601  p :     4.037297
      px      :     1.307645
      py      :     1.245051
      dz2     :     0.004517  d :     0.023454
      dxz     :     0.004100
      dyz     :     0.003870
      dx2y2   :     0.005421
      dxy     :     0.005546
  8 O s       :     3.790946  s :     3.790946
      pz      :     1.600674  p :     4.645497
      px      :     1.639505
      py      :     1.405319
      dz2     :     0.002484  d :     0.019475
      dxz     :     0.002302
      dyz     :     0.004140
      dx2y2   :     0.005141
      dxy     :     0.005407
  9 O s       :     3.806978  s :     3.806978
      pz      :     1.662131  p :     4.669147
      px      :     1.470956
      py      :     1.536061
      dz2     :     0.002364  d :     0.019104
      dxz     :     0.002469
      dyz     :     0.002464
      dx2y2   :     0.004559
      dxy     :     0.007247
 10 H s       :     0.786165  s :     0.786165
      pz      :     0.008630  p :     0.045726
      px      :     0.019176
      py      :     0.017919
 11 H s       :     0.738933  s :     0.738933
      pz      :     0.008546  p :     0.050584
      px      :     0.012721
      py      :     0.029318
 12 H s       :     0.922168  s :     0.922168
      pz      :     0.004186  p :     0.025242
      px      :     0.002543
      py      :     0.018513
 13 H s       :     0.944140  s :     0.944140
      pz      :     0.009890  p :     0.024477
      px      :     0.009296
      py      :     0.005292
 14 H s       :     0.945159  s :     0.945159
      pz      :     0.014330  p :     0.024750
      px      :     0.002472
      py      :     0.007949
 15 H s       :     0.920444  s :     0.920444
      pz      :     0.011111  p :     0.025585
      px      :     0.009290
      py      :     0.005185
 16 H s       :     0.933606  s :     0.933606
      pz      :     0.006161  p :     0.025161
      px      :     0.013915
      py      :     0.005085
 17 H s       :     0.907787  s :     0.907787
      pz      :     0.006306  p :     0.026287
      px      :     0.006783
      py      :     0.013198
 18 H s       :     0.935931  s :     0.935931
      pz      :     0.004508  p :     0.025851
      px      :     0.006529
      py      :     0.014814
 19 H s       :     0.899383  s :     0.899383
      pz      :     0.015023  p :     0.026041
      px      :     0.004637
      py      :     0.006381
 20 H s       :     0.893147  s :     0.893147
      pz      :     0.006912  p :     0.026758
      px      :     0.010325
      py      :     0.009521
 21 H s       :     0.917856  s :     0.917856
      pz      :     0.006163  p :     0.023020
      px      :     0.003747
      py      :     0.013109


                     *******************************
                     * LOEWDIN POPULATION ANALYSIS *
                     *******************************

----------------------
LOEWDIN ATOMIC CHARGES
----------------------
   0 C :   -0.045699
   1 C :    0.191411
   2 C :    0.039994
   3 C :   -0.027092
   4 C :    0.173522
   5 C :    0.069269
   6 N :   -0.081833
   7 N :   -0.104295
   8 O :   -0.325521
   9 O :   -0.321017
  10 H :    0.083418
  11 H :    0.071569
  12 H :    0.024147
  13 H :    0.010134
  14 H :    0.015465
  15 H :    0.029512
  16 H :    0.021499
  17 H :    0.027341
  18 H :    0.023522
  19 H :    0.043848
  20 H :    0.047270
  21 H :    0.033535

-------------------------------
LOEWDIN REDUCED ORBITAL CHARGES
-------------------------------
  0 C s       :     2.836228  s :     2.836228
      pz      :     1.047177  p :     3.131458
      px      :     1.027168
      py      :     1.057114
      dz2     :     0.012143  d :     0.078012
      dxz     :     0.023539
      dyz     :     0.012064
      dx2y2   :     0.013205
      dxy     :     0.017061
  1 C s       :     2.838947  s :     2.838947
      pz      :     0.823997  p :     2.688566
      px      :     0.965992
      py      :     0.898577
      dz2     :     0.029155  d :     0.281076
      dxz     :     0.049415
      dyz     :     0.055987
      dx2y2   :     0.092961
      dxy     :     0.053558
  2 C s       :     2.841134  s :     2.841134
      pz      :     0.967652  p :     2.980292
      px      :     0.958272
      py      :     1.054368
      dz2     :     0.018828  d :     0.138580
      dxz     :     0.042058
      dyz     :     0.027707
      dx2y2   :     0.026394
      dxy     :     0.023592
  3 C s       :     2.833224  s :     2.833224
      pz      :     1.022049  p :     3.111689
      px      :     1.058812
      py      :     1.030829
      dz2     :     0.007171  d :     0.082179
      dxz     :     0.020444
      dyz     :     0.024987
      dx2y2   :     0.013444
      dxy     :     0.016132
  4 C s       :     2.848436  s :     2.848436
      pz      :     0.840038  p :     2.704678
      px      :     0.944080
      py      :     0.920561
      dz2     :     0.048222  d :     0.273363
      dxz     :     0.031907
      dyz     :     0.065385
      dx2y2   :     0.060927
      dxy     :     0.066922
  5 C s       :     2.819569  s :     2.819569
      pz      :     1.023440  p :     2.994448
      px      :     0.903550
      py      :     1.067458
      dz2     :     0.016910  d :     0.116715
      dxz     :     0.033920
      dyz     :     0.016739
      dx2y2   :     0.036864
      dxy     :     0.012281
  6 N s       :     3.059732  s :     3.059732
      pz      :     1.412596  p :     3.969948
      px      :     1.305920
      py      :     1.251432
      dz2     :     0.007347  d :     0.052154
      dxz     :     0.007670
      dyz     :     0.013172
      dx2y2   :     0.010113
      dxy     :     0.013853
  7 N s       :     3.061439  s :     3.061439
      pz      :     1.440134  p :     3.990994
      px      :     1.291306
      py      :     1.259554
      dz2     :     0.008417  d :     0.051862
      dxz     :     0.009409
      dyz     :     0.008835
      dx2y2   :     0.012306
      dxy     :     0.012895
  8 O s       :     3.556892  s :     3.556892
      pz      :     1.600805  p :     4.738397
      px      :     1.660540
      py      :     1.477052
      dz2     :     0.003843  d :     0.030231
      dxz     :     0.003065
      dyz     :     0.006470
      dx2y2   :     0.006975
      dxy     :     0.009878
  9 O s       :     3.545168  s :     3.545168
      pz      :     1.644481  p :     4.745816
      px      :     1.525222
      py      :     1.576113
      dz2     :     0.004516  d :     0.030034
      dxz     :     0.003101
      dyz     :     0.002886
      dx2y2   :     0.005869
      dxy     :     0.013662
 10 H s       :     0.785691  s :     0.785691
      pz      :     0.031472  p :     0.130892
      px      :     0.052263
      py      :     0.047156
 11 H s       :     0.774835  s :     0.774835
      pz      :     0.031613  p :     0.153597
      px      :     0.043402
      py      :     0.078581
 12 H s       :     0.910555  s :     0.910555
      pz      :     0.012366  p :     0.065298
      px      :     0.009211
      py      :     0.043722
 13 H s       :     0.925665  s :     0.925665
      pz      :     0.024299  p :     0.064201
      px      :     0.025265
      py      :     0.014637
 14 H s       :     0.920947  s :     0.920947
      pz      :     0.033910  p :     0.063587
      px      :     0.009215
      py      :     0.020462
 15 H s       :     0.904328  s :     0.904328
      pz      :     0.027696  p :     0.066160
      px      :     0.023357
      py      :     0.015107
 16 H s       :     0.912754  s :     0.912754
      pz      :     0.017493  p :     0.065747
      px      :     0.032839
      py      :     0.015414
 17 H s       :     0.903734  s :     0.903734
      pz      :     0.017587  p :     0.068925
      px      :     0.018480
      py      :     0.032858
 18 H s       :     0.910007  s :     0.910007
      pz      :     0.013389  p :     0.066471
      px      :     0.018479
      py      :     0.034603
 19 H s       :     0.889151  s :     0.889151
      pz      :     0.036089  p :     0.067002
      px      :     0.013434
      py      :     0.017478
 20 H s       :     0.884513  s :     0.884513
      pz      :     0.018551  p :     0.068217
      px      :     0.025964
      py      :     0.023702
 21 H s       :     0.900625  s :     0.900625
      pz      :     0.019822  p :     0.065840
      px      :     0.013242
      py      :     0.032776


                      *****************************
                      * MAYER POPULATION ANALYSIS *
                      *****************************

  NA   - Mulliken gross atomic population
  ZA   - Total nuclear charge
  QA   - Mulliken gross atomic charge
  VA   - Mayer's total valence
  BVA  - Mayer's bonded valence
  FA   - Mayer's free valence

  ATOM       NA         ZA         QA         VA         BVA        FA
  0 C      6.0209     6.0000    -0.0209     3.8740     3.8740    -0.0000
  1 C      5.6211     6.0000     0.3789     4.0126     4.0126    -0.0000
  2 C      5.9299     6.0000     0.0701     3.7604     3.7604    -0.0000
  3 C      6.0104     6.0000    -0.0104     3.9178     3.9178    -0.0000
  4 C      5.5778     6.0000     0.4222     4.0498     4.0498     0.0000
  5 C      5.8286     6.0000     0.1714     3.8924     3.8924    -0.0000
  6 N      7.4653     7.0000    -0.4653     2.9209     2.9209    -0.0000
  7 N      7.5006     7.0000    -0.5006     2.9915     2.9915    -0.0000
  8 O      8.4559     8.0000    -0.4559     2.0297     2.0297     0.0000
  9 O      8.4952     8.0000    -0.4952     1.9561     1.9561    -0.0000
 10 H      0.8319     1.0000     0.1681     0.9713     0.9713     0.0000
 11 H      0.7895     1.0000     0.2105     0.9896     0.9896    -0.0000
 12 H      0.9474     1.0000     0.0526     0.9963     0.9963     0.0000
 13 H      0.9686     1.0000     0.0314     0.9811     0.9811     0.0000
 14 H      0.9699     1.0000     0.0301     0.9838     0.9838     0.0000
 15 H      0.9460     1.0000     0.0540     0.9827     0.9827    -0.0000
 16 H      0.9588     1.0000     0.0412     0.9862     0.9862    -0.0000
 17 H      0.9341     1.0000     0.0659     1.0060     1.0060    -0.0000
 18 H      0.9618     1.0000     0.0382     0.9883     0.9883     0.0000
 19 H      0.9254     1.0000     0.0746     0.9983     0.9983    -0.0000
 20 H      0.9199     1.0000     0.0801     0.9886     0.9886    -0.0000
 21 H      0.9409     1.0000     0.0591     0.9937     0.9937    -0.0000

  Mayer bond orders larger than 0.100000
B(  0-C ,  1-C ) :   0.9912 B(  0-C , 18-H ) :   0.9844 B(  0-C , 19-H ) :   0.9762 
B(  0-C , 20-H ) :   0.9650 B(  1-C ,  6-N ) :   1.1487 B(  1-C ,  9-O ) :   1.8183 
B(  2-C ,  3-C ) :   1.0332 B(  2-C ,  4-C ) :   0.9403 B(  2-C ,  6-N ) :   0.8460 
B(  2-C , 21-H ) :   0.9708 B(  3-C , 15-H ) :   0.9800 B(  3-C , 16-H ) :   0.9815 
B(  3-C , 17-H ) :   0.9755 B(  4-C ,  7-N ) :   1.1959 B(  4-C ,  8-O ) :   1.9421 
B(  5-C ,  7-N ) :   0.9093 B(  5-C , 12-H ) :   0.9861 B(  5-C , 13-H ) :   0.9924 
B(  5-C , 14-H ) :   0.9930 B(  6-N , 10-H ) :   0.9448 B(  7-N , 11-H ) :   0.8935 


-------
TIMINGS
-------

Total SCF time: 0 days 0 hours 1 min 32 sec 

Total time                  ....      92.091 sec
Sum of individual times     ....      91.606 sec  ( 99.5%)

Fock matrix formation       ....      90.325 sec  ( 98.1%)
Diagonalization             ....       0.065 sec  (  0.1%)
Density matrix formation    ....       0.009 sec  (  0.0%)
Population analysis         ....       0.015 sec  (  0.0%)
Initial guess               ....       0.623 sec  (  0.7%)
Orbital Transformation      ....       0.000 sec  (  0.0%)
Orbital Orthonormalization  ....       0.000 sec  (  0.0%)
DIIS solution               ....       0.045 sec  (  0.0%)
SOSCF solution              ....       0.045 sec  (  0.0%)

Maximum memory used throughout the entire SCF-calculation: 250.9 MB

-------------------------   --------------------
FINAL SINGLE POINT ENERGY      -492.486216300687
-------------------------   --------------------

------------------------------------------------------------------------------
                         ORCA SCF GRADIENT CALCULATION
------------------------------------------------------------------------------

Gradient of the Hartree-Fock SCF energy:
Hartree-Fock type                ... RHF
Number of operators              ...    1
Number of atoms                  ...   22
Basis set dimensions             ...  200
Integral neglect threshold       ... 2.5e-11
Integral primitive cutoff        ... 2.5e-12
SHARK Integral package           ... ON

Nuc. rep. gradient       (SHARK) ... done (  0.0 sec)
HCore & Overlap gradient (SHARK) ... done (  0.5 sec)
Two-Electron gradient    (SHARK) ... done ( 27.8 sec)

------------------
CARTESIAN GRADIENT
------------------

   1   C   :    0.000055795    0.001861865    0.007143003
   2   C   :   -0.024898317   -0.005029282   -0.009098456
   3   C   :    0.005379667    0.012060848    0.003031203
   4   C   :   -0.006849131   -0.009646918   -0.005852490
   5   C   :   -0.042556581    0.015384339   -0.002843486
   6   C   :    0.000243330    0.000217256   -0.005455382
   7   N   :   -0.003739059   -0.014705705    0.009705581
   8   N   :    0.026472967    0.009696346   -0.018720755
   9   O   :    0.033770074   -0.044527566    0.019729195
  10   O   :    0.038455923    0.028296461   -0.000832505
  11   H   :   -0.009641052   -0.011840602   -0.001676037
  12   H   :   -0.007663144    0.017654558   -0.001293005
  13   H   :   -0.000737228   -0.004934099   -0.000664266
  14   H   :   -0.006356791    0.002749883    0.005612752
  15   H   :   -0.001800017    0.002325384   -0.001920196
  16   H   :    0.003301643    0.002227865    0.003217443
  17   H   :   -0.001749356    0.002758957    0.002100464
  18   H   :    0.004414550    0.004226367   -0.000456796
  19   H   :    0.000728226   -0.003672361   -0.001829148
  20   H   :    0.001398198   -0.001524014   -0.005437086
  21   H   :   -0.001306656    0.000380493    0.002019150
  22   H   :   -0.006923039   -0.003960073    0.003520820

Difference to translation invariance:
           :    0.0000000000   -0.0000000000    0.0000000000

Difference to rotation invariance:
           :   -0.0000007559    0.0000010742   -0.0000000592

Norm of the cartesian gradient     ...    0.1068902397
RMS gradient                       ...    0.0131572790
MAX gradient                       ...    0.0445275662

-------
TIMINGS
-------

Total SCF gradient time            ...       28.398 sec

One electron gradient       ....       0.471 sec  (  1.7%)
Two electron gradient       ....      27.801 sec  ( 97.9%)

Maximum memory used throughout the entire SCFGRAD-calculation: 41.1 MB
------------------------------------------------------------------------------
                         ORCA GEOMETRY RELAXATION STEP
------------------------------------------------------------------------------

Reading the OPT-File                    .... done
Getting information on internals        .... done
Copying old internal coords+grads       .... done
Making the new internal coordinates     .... (new redundants).... done
Validating the new internal coordinates .... (new redundants).... done
Calculating the B-matrix                .... done
Calculating the G,G- and P matrices     .... done
Transforming gradient to internals      .... done
Projecting the internal gradient        .... done
Number of atoms                         ....  22
Number of internal coordinates          ....  98
Current Energy                          ....  -492.486216301 Eh
Current gradient norm                   ....     0.106890240 Eh/bohr
Maximum allowed component of the step   ....  0.300
Current trust radius                    ....  0.300
Evaluating the initial hessian          ....  (Almloef) done
Projecting the Hessian                  .... done
Forming the augmented Hessian           .... done
Diagonalizing the augmented Hessian     .... done
Last element of RFO vector              ....  0.941933027
Lowest eigenvalues of augmented Hessian:
 -0.019765029  0.009549176  0.011504272  0.012420118  0.015713058
Length of the computed step             ....  0.356501773
Warning: the length of the step is outside the trust region - taking restricted step instead
The input lambda is                     ....    -0.019765
   iter:   1  x=   -0.027274  g=    4.939566 f(x)=     0.037094
   iter:   2  x=   -0.030098  g=    2.956084 f(x)=     0.008347
   iter:   3  x=   -0.030366  g=    2.500411 f(x)=     0.000669
   iter:   4  x=   -0.030368  g=    2.462563 f(x)=     0.000005
   iter:   5  x=   -0.030368  g=    2.462274 f(x)=     0.000000
   iter:   6  x=   -0.030368  g=    2.462274 f(x)=    -0.000000
The output lambda is                    ....    -0.030368 (6 iterations)
The final length of the internal step   ....  0.300000000
Converting the step to cartesian space:
 Initial RMS(Int)=    0.0303045763
Transforming coordinates:
 Iter   0:  RMS(Cart)=    0.1687241156 RMS(Int)=    0.6305750331
 Iter   1:  RMS(Cart)=    0.0095927114 RMS(Int)=    0.0047239109
 Iter   2:  RMS(Cart)=    0.0011523096 RMS(Int)=    0.0003389967
 Iter   3:  RMS(Cart)=    0.0001416907 RMS(Int)=    0.0000697015
 Iter   4:  RMS(Cart)=    0.0000139489 RMS(Int)=    0.0000074785
 Iter   5:  RMS(Cart)=    0.0000019446 RMS(Int)=    0.0000011058
 Iter   6:  RMS(Cart)=    0.0000002001 RMS(Int)=    0.0000001630
 Iter   7:  RMS(Cart)=    0.0000000279 RMS(Int)=    0.0000000200
done
Storing new coordinates                 .... done

                                .--------------------.
          ----------------------|Geometry convergence|-------------------------
          Item                value                   Tolerance       Converged
          ---------------------------------------------------------------------
          RMS gradient        0.0102822795            0.0001000000      NO
          MAX gradient        0.0588706995            0.0003000000      NO
          RMS step            0.0303045763            0.0020000000      NO
          MAX step            0.1082006435            0.0040000000      NO
          ........................................................
          Max(Bonds)      0.0311      Max(Angles)    2.96
          Max(Dihed)        6.20      Max(Improp)    0.00
          ---------------------------------------------------------------------

The optimization has not yet converged - more geometry cycles are needed


    ---------------------------------------------------------------------------
                         Redundant Internal Coordinates
                            (Angstroem and degrees)

        Definition                    Value    dE/dq     Step     New-Value
    ----------------------------------------------------------------------------
     1. B(C   1,C   0)                1.5050 -0.002108  0.0025    1.5076   
     2. B(C   3,C   2)                1.5255 -0.001138  0.0015    1.5270   
     3. B(C   4,C   2)                1.5439  0.003974 -0.0055    1.5384   
     4. B(N   6,C   2)                1.4676 -0.002275  0.0027    1.4702   
     5. B(N   6,C   1)                1.3718  0.021277 -0.0179    1.3539   
     6. B(N   7,C   5)                1.4380 -0.006845  0.0073    1.4453   
     7. B(N   7,C   4)                1.3762  0.036391 -0.0311    1.3451   
     8. B(O   8,C   4)                1.2302  0.058871 -0.0300    1.2002   
     9. B(O   9,C   1)                1.2273  0.047453 -0.0240    1.2033   
    10. B(H  10,N   6)                1.0119  0.015236 -0.0175    0.9943   
    11. B(H  11,N   7)                1.0216  0.019251 -0.0229    0.9987   
    12. B(H  12,C   5)                1.0933  0.004829 -0.0066    1.0867   
    13. B(H  13,C   5)                1.0932  0.000007 -0.0000    1.0931   
    14. B(H  14,C   5)                1.0923  0.002746 -0.0038    1.0886   
    15. B(H  15,C   3)                1.0957  0.003535 -0.0049    1.0908   
    16. B(H  16,C   3)                1.0951  0.003234 -0.0045    1.0906   
    17. B(H  17,C   3)                1.0944  0.005551 -0.0076    1.0868   
    18. B(H  18,C   0)                1.0936  0.003267 -0.0045    1.0891   
    19. B(H  19,C   0)                1.0937  0.004512 -0.0062    1.0875   
    20. B(H  20,C   0)                1.0931  0.002013 -0.0028    1.0904   
    21. B(H  21,C   2)                1.0976  0.007408 -0.0103    1.0873   
    22. A(C   1,C   0,H  19)          109.17  0.000892   -0.13    109.04   
    23. A(C   1,C   0,H  18)          111.47 -0.002590    0.56    112.03   
    24. A(H  18,C   0,H  20)          109.30  0.001376   -0.26    109.04   
    25. A(C   1,C   0,H  20)          109.16  0.000098   -0.16    109.00   
    26. A(H  18,C   0,H  19)          108.08 -0.001659    0.64    108.72   
    27. A(H  19,C   0,H  20)          109.65  0.001941   -0.67    108.98   
    28. A(N   6,C   1,O   9)          123.55 -0.000379    0.02    123.57   
    29. A(C   0,C   1,O   9)          122.16  0.006446   -0.81    121.35   
    30. A(C   0,C   1,N   6)          114.29 -0.006064    0.79    115.08   
    31. A(C   3,C   2,N   6)          113.37  0.003245    0.23    113.60   
    32. A(N   6,C   2,H  21)          104.26  0.000873   -0.55    103.71   
    33. A(C   4,C   2,H  21)          106.07  0.006306   -2.41    103.66   
    34. A(C   4,C   2,N   6)          113.69 -0.008874    2.39    116.08   
    35. A(C   3,C   2,C   4)          110.86  0.000981    0.28    111.14   
    36. A(C   3,C   2,H  21)          107.95 -0.001942   -0.38    107.57   
    37. A(H  15,C   3,H  17)          106.83 -0.003518    0.84    107.67   
    38. A(C   2,C   3,H  17)          112.39  0.000498   -0.01    112.39   
    39. A(H  15,C   3,H  16)          108.19 -0.002193    0.17    108.36   
    40. A(C   2,C   3,H  16)          110.95  0.002345   -0.51    110.44   
    41. A(C   2,C   3,H  15)          110.34  0.003872   -0.63    109.70   
    42. A(H  16,C   3,H  17)          107.96 -0.001422    0.21    108.16   
    43. A(C   2,C   4,N   7)          115.45 -0.018584    2.59    118.04   
    44. A(N   7,C   4,O   8)          122.85  0.004354   -0.47    122.39   
    45. A(C   2,C   4,O   8)          121.42  0.013862   -1.72    119.71   
    46. A(H  13,C   5,H  14)          109.81  0.005225   -0.69    109.12   
    47. A(H  12,C   5,H  14)          110.03  0.002135   -0.61    109.42   
    48. A(N   7,C   5,H  14)          108.59 -0.000906    0.14    108.74   
    49. A(H  12,C   5,H  13)          109.43  0.005528   -0.84    108.59   
    50. A(N   7,C   5,H  13)          108.64 -0.013087    2.22    110.86   
    51. A(N   7,C   5,H  12)          110.32  0.000901   -0.18    110.14   
    52. A(C   2,N   6,H  10)          116.30  0.008703   -1.15    115.15   
    53. A(C   1,N   6,H  10)          118.41  0.011707   -1.53    116.88   
    54. A(C   1,N   6,C   2)          125.00 -0.020730    2.96    127.96   
    55. A(C   5,N   7,H  11)          118.84 -0.002088    0.32    119.16   
    56. A(C   4,N   7,H  11)          117.49 -0.002043    0.30    117.80   
    57. A(C   4,N   7,C   5)          121.97  0.004131   -0.55    121.42   
    58. D(N   6,C   1,C   0,H  20)     97.12  0.000372   -1.23     95.89   
    59. D(O   9,C   1,C   0,H  19)     37.06  0.000869    0.63     37.70   
    60. D(O   9,C   1,C   0,H  20)    -82.77 -0.002087    1.62    -81.16   
    61. D(N   6,C   1,C   0,H  18)    -23.71  0.000242   -1.16    -24.87   
    62. D(O   9,C   1,C   0,H  18)    156.39 -0.002217    1.69    158.08   
    63. D(N   6,C   1,C   0,H  19)   -143.04  0.003328   -2.22   -145.26   
    64. D(H  17,C   3,C   2,C   4)     59.00 -0.006002    2.80     61.80   
    65. D(H  16,C   3,C   2,H  21)    -64.25  0.001160   -0.26    -64.51   
    66. D(H  15,C   3,C   2,C   4)    -60.13 -0.004508    2.17    -57.96   
    67. D(H  15,C   3,C   2,N   6)    170.60  0.004132   -1.57    169.03   
    68. D(H  16,C   3,C   2,N   6)     50.71  0.002823   -1.04     49.67   
    69. D(H  17,C   3,C   2,N   6)    -70.27  0.002638   -0.94    -71.21   
    70. D(H  15,C   3,C   2,H  21)     55.64  0.002469   -0.79     54.85   
    71. D(H  16,C   3,C   2,C   4)    179.98 -0.005818    2.70    182.68   
    72. D(H  17,C   3,C   2,H  21)    174.77  0.000975   -0.16    174.61   
    73. D(O   8,C   4,C   2,H  21)    -19.86 -0.002982    3.29    -16.57   
    74. D(O   8,C   4,C   2,N   6)   -133.83 -0.003342    4.19   -129.64   
    75. D(O   8,C   4,C   2,C   3)     97.07 -0.001164    1.60     98.67   
    76. D(N   7,C   4,C   2,H  21)    165.96  0.000798   -1.03    164.93   
    77. D(N   7,C   4,C   2,N   6)     51.99  0.000438   -0.12     51.86   
    78. D(N   7,C   4,C   2,C   3)    -77.11  0.002616   -2.71    -79.83   
    79. D(H  10,N   6,C   2,C   4)    100.02  0.003665   -3.28     96.74   
    80. D(H  10,N   6,C   2,C   3)   -132.16  0.000061   -0.56   -132.72   
    81. D(C   1,N   6,C   2,H  21)    171.27  0.002484   -4.15    167.12   
    82. D(C   1,N   6,C   2,C   4)    -73.68  0.006239   -6.20    -79.88   
    83. D(C   1,N   6,C   2,C   3)     54.13  0.002634   -3.48     50.65   
    84. D(H  10,N   6,C   1,O   9)   -171.30  0.004030   -4.26   -175.56   
    85. D(H  10,N   6,C   1,C   0)      8.80  0.001525   -1.36      7.44   
    86. D(C   2,N   6,C   1,O   9)      2.28  0.001178   -1.25      1.03   
    87. D(H  10,N   6,C   2,H  21)    -15.02 -0.000089   -1.23    -16.25   
    88. D(C   2,N   6,C   1,C   0)   -177.62 -0.001328    1.64   -175.97   
    89. D(H  11,N   7,C   5,H  14)    -33.02  0.001296   -0.25    -33.27   
    90. D(H  11,N   7,C   5,H  13)     86.37 -0.000483    0.28     86.65   
    91. D(C   4,N   7,C   5,H  14)    162.20  0.001635   -0.63    161.58   
    92. D(C   4,N   7,C   5,H  13)    -78.40 -0.000145   -0.10    -78.50   
    93. D(C   4,N   7,C   5,H  12)     41.55 -0.000968    0.14     41.69   
    94. D(H  11,N   7,C   4,O   8)   -166.51  0.002192   -2.72   -169.23   
    95. D(H  11,N   7,C   5,H  12)   -153.68 -0.001306    0.52   -153.16   
    96. D(H  11,N   7,C   4,C   2)      7.58 -0.001063    1.59      9.16   
    97. D(C   5,N   7,C   4,O   8)     -1.54  0.001835   -2.35     -3.89   
    98. D(C   5,N   7,C   4,C   2)    172.55 -0.001420    1.96    174.51   
    ----------------------------------------------------------------------------

         *************************************************************
         *                GEOMETRY OPTIMIZATION CYCLE   2            *
         *************************************************************
---------------------------------
CARTESIAN COORDINATES (ANGSTROEM)
---------------------------------
  C     -1.251785    3.343584   -1.764584
  C     -0.000591    3.249024   -0.928935
  C      1.194286    1.741157    0.726642
  C      1.425883    2.801090    1.801194
  C      2.526292    1.268561    0.119005
  C      4.410283    1.733121   -1.350606
  N      0.137183    2.096907   -0.231258
  N      3.104370    2.044434   -0.815418
  O      3.026613    0.248450    0.505700
  O      0.775999    4.165562   -0.859303
  H     -0.525310    1.378527   -0.414930
  H      2.719039    2.952732   -0.970049
  H      4.496358    0.664719   -1.529405
  H      5.197831    2.034461   -0.654954
  H      4.540049    2.268698   -2.289377
  H      2.073139    2.398462    2.581416
  H      0.479581    3.094030    2.257398
  H      1.902143    3.694302    1.405718
  H     -1.637413    2.361636   -2.035312
  H     -1.029203    3.894397   -2.675496
  H     -2.014532    3.882480   -1.201842
  H      0.807426    0.852806    1.220064

----------------------------
CARTESIAN COORDINATES (A.U.)
----------------------------
  NO LB      ZA    FRAG     MASS         X           Y           Z
   0 C     6.0000    0    12.011   -2.365531    6.318458   -3.334581
   1 C     6.0000    0    12.011   -0.001117    6.139765   -1.755433
   2 C     6.0000    0    12.011    2.256873    3.290311    1.373155
   3 C     6.0000    0    12.011    2.694528    5.293293    3.403763
   4 C     6.0000    0    12.011    4.774000    2.397233    0.224888
   5 C     6.0000    0    12.011    8.334227    3.275124   -2.552276
   6 N     7.0000    0    14.007    0.259239    3.962580   -0.437013
   7 N     7.0000    0    14.007    5.866410    3.863420   -1.540916
   8 O     8.0000    0    15.999    5.719469    0.469503    0.955634
   9 O     8.0000    0    15.999    1.466426    7.871772   -1.623848
  10 H     1.0000    0     1.008   -0.992692    2.605038   -0.784104
  11 H     1.0000    0     1.008    5.138240    5.579854   -1.833128
  12 H     1.0000    0     1.008    8.496886    1.256137   -2.890156
  13 H     1.0000    0     1.008    9.822477    3.844575   -1.237683
[...]
     52      -0.007898  -0.340044   0.004968   0.002585  -0.084021   0.143341
     53       0.003688   0.169229  -0.002502  -0.001244   0.040372  -0.073174
     54       0.001349  -0.003062  -0.258552   0.000651  -0.003261  -0.005710
     55       0.002802  -0.006049  -0.520343   0.001317  -0.006221  -0.011210
     56       0.000557  -0.001330  -0.111394   0.000279  -0.001282  -0.002350
     57      -0.000595   0.001602   0.109449  -0.000365   0.000946  -0.000085
     58      -0.001101   0.002646   0.205313  -0.000559   0.001917   0.000638
     59       0.001982  -0.004961  -0.383483   0.001049  -0.003153  -0.000569
     60       0.001893  -0.005488  -0.418647  -0.001568   0.005240   0.007478
     61      -0.001857   0.005188   0.392417   0.001430  -0.004799  -0.006724
     62      -0.001637   0.004760   0.341375   0.001210  -0.004335  -0.006131
     63       0.000002  -0.010959   0.000624  -0.001259   0.050998  -0.328924
     64       0.002890  -0.028189   0.000343  -0.002522   0.126824  -0.791497
     65      -0.000919   0.018367   0.000156   0.001505  -0.071739   0.445618
                 60         61         62         63         64         65    
      0      -0.014589  -0.000279  -0.042089   0.003355   0.000094  -0.000151
      1       0.075634  -0.000267  -0.055087   0.004633   0.000100  -0.000390
      2       0.052985   0.000465   0.063583  -0.004974   0.000028  -0.000089
      3      -0.000987   0.000064  -0.000921   0.000542  -0.002096  -0.000732
      4       0.001160   0.000136  -0.001319   0.000561  -0.002964   0.001009
      5      -0.000713  -0.000046   0.000592   0.000015   0.000730  -0.001091
      6      -0.000539   0.000125   0.000462   0.005562   0.000567   0.001197
      7      -0.001191   0.000263   0.001382   0.012976  -0.000181  -0.000502
      8       0.000670  -0.000013  -0.000824  -0.007920   0.000159   0.001309
      9      -0.001275  -0.000478   0.001932   0.025303  -0.000028   0.000143
     10       0.000448  -0.000942   0.005455   0.067601  -0.000014   0.000031
     11      -0.000108   0.000777  -0.004508  -0.055573  -0.000084   0.000206
     12       0.000014  -0.000635  -0.000063  -0.000107   0.000012   0.000098
     13       0.000016   0.001035   0.000025   0.000878  -0.000442   0.000034
     14      -0.000021  -0.000547   0.000071  -0.000137   0.000288   0.000019
     15       0.000048   0.005656  -0.000029  -0.000114   0.001257  -0.000069
     16      -0.000081   0.092857  -0.000469   0.001220  -0.000959   0.000022
     17       0.000251  -0.016754   0.000166  -0.000185  -0.000283   0.000017
     18      -0.000259   0.000050   0.000152  -0.000064  -0.001118  -0.054407
     19      -0.000516  -0.000082   0.000506  -0.000394   0.000112  -0.050161
     20       0.000061   0.000027  -0.000035   0.000496  -0.000779  -0.006573
     21      -0.000034  -0.000336   0.000062  -0.000075  -0.031931   0.000614
     22       0.000076  -0.001271  -0.000098  -0.000340   0.066749  -0.001260
     23      -0.000033   0.000483  -0.000018   0.000033  -0.014364   0.000282
     24       0.000007   0.000502   0.000017   0.000038   0.000009   0.000020
     25      -0.000014  -0.000455  -0.000012  -0.000312  -0.001388  -0.000048
     26       0.000001  -0.000129  -0.000002   0.000172   0.000871   0.000001
     27      -0.000033  -0.000047   0.000409  -0.000408   0.001132   0.000619
     28      -0.000142  -0.000072   0.000521  -0.000162   0.001451   0.000861
     29       0.000049   0.000023  -0.000315  -0.000593  -0.000310  -0.000178
     30       0.003207  -0.000080  -0.002881   0.000990   0.014151   0.734753
     31       0.002316  -0.000005  -0.000399   0.001729   0.013766   0.667085
     32       0.002013   0.000028  -0.001700  -0.000614   0.000998   0.095322
     33       0.000292   0.003099  -0.000391  -0.000834   0.419642  -0.008355
     34      -0.000966   0.009018   0.001134   0.000861  -0.884205   0.016761
     35       0.000324  -0.001190  -0.000026   0.000946   0.189197  -0.003793
     36       0.000081   0.040789  -0.000196   0.000822   0.006474  -0.000053
     37      -0.000163  -0.827494   0.003890  -0.011990  -0.008284   0.000002
     38       0.000015  -0.175451   0.000835  -0.002696  -0.004096   0.000032
     39      -0.000852  -0.069933   0.000155   0.000489   0.005522   0.000115
     40      -0.000314  -0.008212  -0.000028   0.000354   0.000965   0.000015
     41      -0.000721  -0.062138   0.000131   0.000235   0.001300   0.000078
     42       0.000223  -0.037665   0.000313  -0.000356  -0.002119   0.000065
     43       0.001387  -0.266583   0.001768  -0.003072  -0.001483   0.000081
     44      -0.002156   0.438427  -0.002935   0.004939   0.002585  -0.000118
     45       0.006222  -0.002358   0.017928   0.210697  -0.000570   0.000407
     46      -0.003391   0.001129  -0.008297  -0.099867   0.000453  -0.000140
     47       0.006294  -0.002208   0.017467   0.204550  -0.001490   0.000559
     48       0.008998   0.003596  -0.016289  -0.209228  -0.000910  -0.000123
     49      -0.001852  -0.000917   0.004030   0.051739   0.000703  -0.000199
     50      -0.005097  -0.001857   0.008421   0.109342   0.001027  -0.000435
     51      -0.000274   0.004406  -0.024149  -0.301326   0.000137  -0.000198
     52       0.000196   0.010897  -0.060863  -0.758007  -0.001009  -0.000189
     53      -0.000122  -0.005303   0.029005   0.359956   0.001765  -0.000229
     54      -0.304893   0.000750   0.187786  -0.016341   0.001607   0.002086
     55      -0.589949   0.001611   0.376345  -0.032429   0.001204   0.006216
     56      -0.121121   0.000363   0.084142  -0.007330   0.000905  -0.000801
     57       0.038400   0.001362   0.200331  -0.015925  -0.000209   0.000064
     58       0.093490   0.002655   0.400753  -0.031994   0.000278   0.000417
     59      -0.147002  -0.004917  -0.750102   0.059954  -0.000521  -0.000201
     60       0.454017   0.001208   0.118850  -0.008902   0.000127  -0.000144
     61      -0.410302  -0.001188  -0.121185   0.009074   0.000206   0.000349
     62      -0.358899  -0.000936  -0.091484   0.006712  -0.000006   0.000291
     63       0.005519  -0.001510  -0.006120  -0.063848  -0.000415   0.002941
     64       0.012735  -0.002884  -0.014942  -0.155689   0.000463   0.008791
     65      -0.007002   0.001829   0.008014   0.082832  -0.000112  -0.004887


-----------
IR SPECTRUM
-----------

 Mode   freq       eps      Int      T**2         TX        TY        TZ
       cm**-1   L/(mol*cm) km/mol    a.u.
----------------------------------------------------------------------------
  6:     42.21   0.000235    1.19  0.001735  ( 0.009962  0.027553  0.029607)
  7:     45.16   0.000057    0.29  0.000393  ( 0.010040 -0.005221 -0.016279)
  8:     60.20   0.001215    6.14  0.006298  ( 0.054176  0.021706  0.053777)
  9:     81.38   0.001722    8.70  0.006601  (-0.031112  0.043682  0.061035)
 10:    131.66   0.002119   10.71  0.005022  (-0.061479  0.026038  0.023746)
 11:    151.62   0.000386    1.95  0.000794  ( 0.003875 -0.011471 -0.025440)
 12:    202.32   0.001234    6.24  0.001904  ( 0.028752 -0.031990  0.007351)
 13:    229.57   0.000213    1.08  0.000290  (-0.007828  0.012988 -0.007756)
 14:    263.52   0.000187    0.94  0.000221  ( 0.001488  0.004366 -0.014135)
 15:    279.13   0.002736   13.83  0.003059  ( 0.022524  0.003640  0.050383)
 16:    349.38   0.002174   10.99  0.001942  (-0.033056 -0.009605  0.027519)
 17:    400.12   0.000985    4.98  0.000768  ( 0.022110  0.004350 -0.016142)
 18:    422.64   0.002148   10.86  0.001586  (-0.017598 -0.012640 -0.033417)
 19:    503.84   0.017943   90.68  0.011113  ( 0.057091 -0.046318 -0.075554)
 20:    579.81   0.005607   28.34  0.003018  (-0.045117  0.025741 -0.017878)
 21:    660.23   0.002086   10.54  0.000986  ( 0.013609 -0.009505  0.026651)
 22:    684.62   0.009784   49.45  0.004460  ( 0.051740  0.018350  0.038027)
 23:    718.15   0.013607   68.77  0.005913  (-0.026515 -0.020640 -0.069166)
 24:    760.56   0.000717    3.62  0.000294  (-0.000690 -0.004768  0.016463)
 25:    861.96   0.000716    3.62  0.000259  (-0.006416 -0.012699 -0.007535)
 26:    911.94   0.001220    6.16  0.000417  ( 0.018421 -0.002365 -0.008513)
 27:    983.63   0.001198    6.05  0.000380  (-0.013182 -0.014267  0.001664)
 28:   1016.72   0.001046    5.29  0.000321  ( 0.003283  0.011550 -0.013303)
 29:   1082.76   0.001228    6.21  0.000354  (-0.010728  0.013635  0.007282)
 30:   1120.89   0.001919    9.70  0.000534  ( 0.004246  0.013262 -0.018451)
 31:   1151.14   0.003381   17.08  0.000916  ( 0.019079 -0.014941 -0.018143)
 32:   1206.19   0.001803    9.11  0.000467  ( 0.009238  0.001467 -0.019469)
 33:   1229.08   0.000119    0.60  0.000030  (-0.000504 -0.002696  0.004754)
 34:   1244.43   0.002150   10.87  0.000539  ( 0.018539 -0.000052 -0.013981)
 35:   1259.99   0.004011   20.27  0.000993  ( 0.030720 -0.005575 -0.004321)
 36:   1293.60   0.000982    4.96  0.000237  ( 0.014802  0.000002 -0.004205)
 37:   1399.51   0.022581  114.11  0.005035  ( 0.055783 -0.032673  0.029255)
 38:   1437.04   0.001524    7.70  0.000331  (-0.014705  0.010259  0.003086)
 39:   1448.05   0.010366   52.39  0.002234  ( 0.011956  0.016270 -0.042735)
 40:   1505.92   0.007360   37.19  0.001525  (-0.013684  0.030784 -0.019753)
 41:   1518.05   0.004778   24.15  0.000982  ( 0.019852 -0.020174  0.013458)
 42:   1532.10   0.010287   51.99  0.002095  ( 0.021078 -0.017760  0.036546)
 43:   1565.78   0.002971   15.01  0.000592  ( 0.018035  0.013600 -0.009051)
 44:   1567.60   0.002256   11.40  0.000449  ( 0.013662  0.015820  0.003501)
 45:   1590.58   0.002842   14.36  0.000558  ( 0.009923  0.020912  0.004668)
 46:   1591.22   0.000861    4.35  0.000169  (-0.003903 -0.001357 -0.012317)
 47:   1594.37   0.003725   18.83  0.000729  (-0.013537 -0.001936  0.023283)
 48:   1607.89   0.000202    1.02  0.000039  ( 0.006196  0.000540  0.000678)
 49:   1617.38   0.000640    3.23  0.000123  ( 0.006068 -0.008640  0.003463)
 50:   1702.20   0.051777  261.66  0.009492  (-0.040036  0.066875 -0.058457)
 51:   1745.89   0.065428  330.65  0.011695  ( 0.070416  0.044228 -0.069140)
 52:   1937.71   0.046121  233.08  0.007428  (-0.079304 -0.033553 -0.003566)
 53:   1959.58   0.097189  491.16  0.015477  (-0.002410  0.116976 -0.042287)
 54:   3183.51   0.012555   63.45  0.001231  (-0.033897 -0.005059  0.007489)
 55:   3193.68   0.003958   20.00  0.000387  (-0.002641  0.006868  0.018237)
 56:   3198.48   0.000973    4.92  0.000095  ( 0.009094  0.002694  0.002231)
 57:   3266.78   0.006982   35.29  0.000667  ( 0.005684  0.001253  0.025162)
 58:   3273.69   0.004693   23.72  0.000447  ( 0.019392 -0.007973  0.002781)
 59:   3278.91   0.001767    8.93  0.000168  ( 0.005968  0.009963 -0.005772)
 60:   3285.08   0.002238   11.31  0.000213  ( 0.003190  0.012289  0.007172)
 61:   3312.36   0.002424   12.25  0.000228  ( 0.000937  0.014913 -0.002266)
 62:   3318.50   0.001044    5.28  0.000098  (-0.004280 -0.007709  0.004521)
 63:   3319.93   0.002045   10.33  0.000192  ( 0.004557  0.009227 -0.009289)
 64:   3818.82   0.037678  190.41  0.003079  ( 0.035020 -0.041377  0.011853)
 65:   3888.32   0.011175   56.48  0.000897  ( 0.018679  0.023322 -0.002023)

* The epsilon (eps) is given for a Dirac delta lineshape.
** The dipole moment derivative (T) already includes vibrational overlap.

The first frequency considered to be a vibration is 6
The total number of vibrations considered is 60


--------------------------
THERMOCHEMISTRY AT 298.15K
--------------------------

Temperature         ... 298.15 K
Pressure            ... 1.00 atm
Total Mass          ... 144.17 AMU

Throughout the following assumptions are being made:
  (1) The electronic state is orbitally nondegenerate
  (2) There are no thermally accessible electronically excited states
  (3) Hindered rotations indicated by low frequency modes are not
      treated as such but are treated as vibrations and this may
      cause some error
  (4) All equations used are the standard statistical mechanics
      equations for an ideal gas
  (5) All vibrations are strictly harmonic

freq.      42.21  E(vib)   ...       0.53 
freq.      45.16  E(vib)   ...       0.53 
freq.      60.20  E(vib)   ...       0.51 
freq.      81.38  E(vib)   ...       0.48 
freq.     131.66  E(vib)   ...       0.42 
freq.     151.62  E(vib)   ...       0.40 
freq.     202.32  E(vib)   ...       0.35 
freq.     229.57  E(vib)   ...       0.32 
freq.     263.52  E(vib)   ...       0.29 
freq.     279.13  E(vib)   ...       0.28 
freq.     349.38  E(vib)   ...       0.23 
freq.     400.12  E(vib)   ...       0.19 
freq.     422.64  E(vib)   ...       0.18 
freq.     503.84  E(vib)   ...       0.14 
freq.     579.81  E(vib)   ...       0.11 
freq.     660.23  E(vib)   ...       0.08 
freq.     684.62  E(vib)   ...       0.07 
freq.     718.15  E(vib)   ...       0.07 
freq.     760.56  E(vib)   ...       0.06 
freq.     861.96  E(vib)   ...       0.04 
freq.     911.94  E(vib)   ...       0.03 
freq.     983.63  E(vib)   ...       0.02 
freq.    1016.72  E(vib)   ...       0.02 
freq.    1082.76  E(vib)   ...       0.02 
freq.    1120.89  E(vib)   ...       0.01 
freq.    1151.14  E(vib)   ...       0.01 
freq.    1206.19  E(vib)   ...       0.01 
freq.    1229.08  E(vib)   ...       0.01 
freq.    1244.43  E(vib)   ...       0.01 
freq.    1259.99  E(vib)   ...       0.01 
freq.    1293.60  E(vib)   ...       0.01 
freq.    1399.51  E(vib)   ...       0.00 
freq.    1437.04  E(vib)   ...       0.00 
freq.    1448.05  E(vib)   ...       0.00 
freq.    1505.92  E(vib)   ...       0.00 
freq.    1518.05  E(vib)   ...       0.00 
freq.    1532.10  E(vib)   ...       0.00 
freq.    1565.78  E(vib)   ...       0.00 
freq.    1567.60  E(vib)   ...       0.00 
freq.    1590.58  E(vib)   ...       0.00 
freq.    1591.22  E(vib)   ...       0.00 
freq.    1594.37  E(vib)   ...       0.00 
freq.    1607.89  E(vib)   ...       0.00 
freq.    1617.38  E(vib)   ...       0.00 
freq.    1702.20  E(vib)   ...       0.00 
freq.    1745.89  E(vib)   ...       0.00 
freq.    1937.71  E(vib)   ...       0.00 
freq.    1959.58  E(vib)   ...       0.00 
freq.    3183.51  E(vib)   ...       0.00 
freq.    3193.68  E(vib)   ...       0.00 
freq.    3198.48  E(vib)   ...       0.00 
freq.    3266.78  E(vib)   ...       0.00 
freq.    3273.69  E(vib)   ...       0.00 
freq.    3278.91  E(vib)   ...       0.00 
freq.    3285.08  E(vib)   ...       0.00 
freq.    3312.36  E(vib)   ...       0.00 
freq.    3318.50  E(vib)   ...       0.00 
freq.    3319.93  E(vib)   ...       0.00 
freq.    3818.82  E(vib)   ...       0.00 
freq.    3888.32  E(vib)   ...       0.00 

------------
INNER ENERGY
------------

The inner energy is: U= E(el) + E(ZPE) + E(vib) + E(rot) + E(trans)
    E(el)   - is the total energy from the electronic structure calculation
              = E(kin-el) + E(nuc-el) + E(el-el) + E(nuc-nuc)
    E(ZPE)  - the the zero temperature vibrational energy from the frequency calculation
    E(vib)  - the the finite temperature correction to E(ZPE) due to population
              of excited vibrational states
    E(rot)  - is the rotational thermal energy
    E(trans)- is the translational thermal energy

Summary of contributions to the inner energy U:
Electronic energy                ...   -492.49533912 Eh
Zero point energy                ...      0.19953871 Eh     125.21 kcal/mol
Thermal vibrational correction   ...      0.00877208 Eh       5.50 kcal/mol
Thermal rotational correction    ...      0.00141627 Eh       0.89 kcal/mol
Thermal translational correction ...      0.00141627 Eh       0.89 kcal/mol
-----------------------------------------------------------------------
Total thermal energy                   -492.28419579 Eh


Summary of corrections to the electronic energy:
(perhaps to be used in another calculation)
Total thermal correction                  0.01160462 Eh       7.28 kcal/mol
Non-thermal (ZPE) correction              0.19953871 Eh     125.21 kcal/mol
-----------------------------------------------------------------------
Total correction                          0.21114333 Eh     132.49 kcal/mol


--------
ENTHALPY
--------

The enthalpy is H = U + kB*T
                kB is Boltzmann's constant
Total free energy                 ...   -492.28419579 Eh 
Thermal Enthalpy correction       ...      0.00094421 Eh       0.59 kcal/mol
-----------------------------------------------------------------------
Total Enthalpy                    ...   -492.28325158 Eh


Note: Only C1 symmetry has been detected, increase convergence thresholds 
      if your molecule has a higher symmetry. Symmetry factor of 1.0 is   
      used for the rotational entropy correction. 
 

Note: Rotational entropy computed according to Herzberg 
Infrared and Raman Spectra, Chapter V,1, Van Nostrand Reinhold, 1945 
Point Group:  C1, Symmetry Number:   1  
Rotational constants in cm-1:     0.066006     0.029939     0.025439 

Vibrational entropy computed according to the QRRHO of S. Grimme
Chem.Eur.J. 2012 18 9955


-------
ENTROPY
-------

The entropy contributions are T*S = T*(S(el)+S(vib)+S(rot)+S(trans))
     S(el)   - electronic entropy
     S(vib)  - vibrational entropy
     S(rot)  - rotational entropy
     S(trans)- translational entropy
The entropies will be listed as multiplied by the temperature to get
units of energy

Electronic entropy                ...      0.00000000 Eh      0.00 kcal/mol
Vibrational entropy               ...      0.01579152 Eh      9.91 kcal/mol
Rotational entropy                ...      0.01418361 Eh      8.90 kcal/mol
Translational entropy             ...      0.01938939 Eh     12.17 kcal/mol
-----------------------------------------------------------------------
Final entropy term                ...      0.04936451 Eh     30.98 kcal/mol

In case the symmetry of your molecule has not been determined correctly
or in case you have a reason to use a different symmetry number we print 
out the resulting rotational entropy values for sn=1,12 :
 --------------------------------------------------------
|  sn= 1 | S(rot)=       0.01418361 Eh      8.90 kcal/mol|
|  sn= 2 | S(rot)=       0.01352915 Eh      8.49 kcal/mol|
|  sn= 3 | S(rot)=       0.01314632 Eh      8.25 kcal/mol|
|  sn= 4 | S(rot)=       0.01287470 Eh      8.08 kcal/mol|
|  sn= 5 | S(rot)=       0.01266401 Eh      7.95 kcal/mol|
|  sn= 6 | S(rot)=       0.01249186 Eh      7.84 kcal/mol|
|  sn= 7 | S(rot)=       0.01234632 Eh      7.75 kcal/mol|
|  sn= 8 | S(rot)=       0.01222024 Eh      7.67 kcal/mol|
|  sn= 9 | S(rot)=       0.01210903 Eh      7.60 kcal/mol|
|  sn=10 | S(rot)=       0.01200955 Eh      7.54 kcal/mol|
|  sn=11 | S(rot)=       0.01191956 Eh      7.48 kcal/mol|
|  sn=12 | S(rot)=       0.01183741 Eh      7.43 kcal/mol|
 --------------------------------------------------------


-------------------
GIBBS FREE ENERGY
-------------------

The Gibbs free energy is G = H - T*S

Total enthalpy                    ...   -492.28325158 Eh 
Total entropy correction          ...     -0.04936451 Eh    -30.98 kcal/mol
-----------------------------------------------------------------------
Final Gibbs free energy         ...   -492.33261610 Eh

For completeness - the Gibbs free energy minus the electronic energy
G-E(el)                           ...      0.16272303 Eh    102.11 kcal/mol


Timings for individual modules:

Sum of individual times         ...     2540.984 sec (=  42.350 min)
GTO integral calculation        ...        4.087 sec (=   0.068 min)   0.2 %
SCF iterations                  ...      610.302 sec (=  10.172 min)  24.0 %
SCF Gradient evaluation         ...      283.106 sec (=   4.718 min)  11.1 %
Geometry relaxation             ...        0.470 sec (=   0.008 min)   0.0 %
Analytical frequency calculation...     1643.020 sec (=  27.384 min)  64.7 %
                             ****ORCA TERMINATED NORMALLY****
TOTAL RUN TIME: 0 days 0 hours 42 minutes 22 seconds 150 msec
