
                                 *****************
                                 * O   R   C   A *
                                 *****************

                                            #,                                       
                                            ###                                      
                                            ####                                     
                                            #####                                    
                                            ######                                   
                                           ########,                                 
                                     ,,################,,,,,                         
                               ,,#################################,,                 
                          ,,##########################################,,             
                       ,#########################################, ''#####,          
                    ,#############################################,,   '####,        
                  ,##################################################,,,,####,       
                ,###########''''           ''''###############################       
              ,#####''   ,,,,##########,,,,          '''####'''          '####       
            ,##' ,,,,###########################,,,                        '##       
           ' ,,###''''                  '''############,,,                           
         ,,##''                                '''############,,,,        ,,,,,,###''
      ,#''                                            '''#######################'''  
     '                                                          ''''####''''         
             ,#######,   #######,   ,#######,      ##                                
            ,#'     '#,  ##    ##  ,#'     '#,    #''#        ######   ,####,        
            ##       ##  ##   ,#'  ##            #'  '#       #        #'  '#        
            ##       ##  #######   ##           ,######,      #####,   #    #        
            '#,     ,#'  ##    ##  '#,     ,#' ,#      #,         ##   #,  ,#        
             '#######'   ##     ##  '#######'  #'      '#     #####' # '####'        



                  #######################################################
                  #                        -***-                        #
                  #          Department of theory and spectroscopy      #
                  #    Directorship and core code : Frank Neese         #
                  #        Max Planck Institute fuer Kohlenforschung    #
                  #                Kaiser Wilhelm Platz 1               #
                  #                 D-45470 Muelheim/Ruhr               #
                  #                      Germany                        #
                  #                                                     #
                  #                  All rights reserved                #
                  #                        -***-                        #
                  #######################################################


                         Program Version 5.0.4 -  RELEASE  -


 With contributions from (in alphabetic order):
   Daniel Aravena         : Magnetic Suceptibility
   Michael Atanasov       : Ab Initio Ligand Field Theory (pilot matlab implementation)
   Alexander A. Auer      : GIAO ZORA, VPT2 properties, NMR spectrum
   Ute Becker             : Parallelization
   Giovanni Bistoni       : ED, misc. LED, open-shell LED, HFLD
   Martin Brehm           : Molecular dynamics
   Dmytro Bykov           : SCF Hessian
   Vijay G. Chilkuri      : MRCI spin determinant printing, contributions to CSF-ICE
   Dipayan Datta          : RHF DLPNO-CCSD density
   Achintya Kumar Dutta   : EOM-CC, STEOM-CC
   Dmitry Ganyushin       : Spin-Orbit,Spin-Spin,Magnetic field MRCI
   Miquel Garcia          : C-PCM and meta-GGA Hessian, CC/C-PCM, Gaussian charge scheme
   Yang Guo               : DLPNO-NEVPT2, F12-NEVPT2, CIM, IAO-localization
   Andreas Hansen         : Spin unrestricted coupled pair/coupled cluster methods
   Benjamin Helmich-Paris : MC-RPA, TRAH-SCF, COSX integrals
   Lee Huntington         : MR-EOM, pCC
   Robert Izsak           : Overlap fitted RIJCOSX, COSX-SCS-MP3, EOM
   Marcus Kettner         : VPT2
   Christian Kollmar      : KDIIS, OOCD, Brueckner-CCSD(T), CCSD density, CASPT2, CASPT2-K
   Simone Kossmann        : Meta GGA functionals, TD-DFT gradient, OOMP2, MP2 Hessian
   Martin Krupicka        : Initial AUTO-CI
   Lucas Lang             : DCDCAS
   Marvin Lechner         : AUTO-CI (C++ implementation), FIC-MRCC
   Dagmar Lenk            : GEPOL surface, SMD
   Dimitrios Liakos       : Extrapolation schemes; Compound Job, initial MDCI parallelization
   Dimitrios Manganas     : Further ROCIS development; embedding schemes
   Dimitrios Pantazis     : SARC Basis sets
   Anastasios Papadopoulos: AUTO-CI, single reference methods and gradients
   Taras Petrenko         : DFT Hessian,TD-DFT gradient, ASA, ECA, R-Raman, ABS, FL, XAS/XES, NRVS
   Peter Pinski           : DLPNO-MP2, DLPNO-MP2 Gradient
   Christoph Reimann      : Effective Core Potentials
   Marius Retegan         : Local ZFS, SOC
   Christoph Riplinger    : Optimizer, TS searches, QM/MM, DLPNO-CCSD(T), (RO)-DLPNO pert. Triples
   Tobias Risthaus        : Range-separated hybrids, TD-DFT gradient, RPA, STAB
   Michael Roemelt        : Original ROCIS implementation
   Masaaki Saitow         : Open-shell DLPNO-CCSD energy and density
   Barbara Sandhoefer     : DKH picture change effects
   Avijit Sen             : IP-ROCIS
   Kantharuban Sivalingam : CASSCF convergence, NEVPT2, FIC-MRCI
   Bernardo de Souza      : ESD, SOC TD-DFT
   Georgi Stoychev        : AutoAux, RI-MP2 NMR, DLPNO-MP2 response
   Willem Van den Heuvel  : Paramagnetic NMR
   Boris Wezisla          : Elementary symmetry handling
   Frank Wennmohs         : Technical directorship


 We gratefully acknowledge several colleagues who have allowed us to
 interface, adapt or use parts of their codes:
   Stefan Grimme, W. Hujo, H. Kruse, P. Pracht,  : VdW corrections, initial TS optimization,
                  C. Bannwarth, S. Ehlert          DFT functionals, gCP, sTDA/sTD-DF
   Ed Valeev, F. Pavosevic, A. Kumar             : LibInt (2-el integral package), F12 methods
   Garnet Chan, S. Sharma, J. Yang, R. Olivares  : DMRG
   Ulf Ekstrom                                   : XCFun DFT Library
   Mihaly Kallay                                 : mrcc  (arbitrary order and MRCC methods)
   Jiri Pittner, Ondrej Demel                    : Mk-CCSD
   Frank Weinhold                                : gennbo (NPA and NBO analysis)
   Christopher J. Cramer and Donald G. Truhlar   : smd solvation model
   Lars Goerigk                                  : TD-DFT with DH, B97 family of functionals
   V. Asgeirsson, H. Jonsson                     : NEB implementation
   FAccTs GmbH                                   : IRC, NEB, NEB-TS, DLPNO-Multilevel, CI-OPT
                                                   MM, QMMM, 2- and 3-layer-ONIOM, Crystal-QMMM,
                                                   LR-CPCM, SF, NACMEs, symmetry and pop. for TD-DFT,
                                                   nearIR, NL-DFT gradient (VV10), updates on ESD,
                                                   ML-optimized integration grids
   S Lehtola, MJT Oliveira, MAL Marques          : LibXC Library
   Liviu Ungur et al                             : ANISO software


 Your calculation uses the libint2 library for the computation of 2-el integrals
 For citations please refer to: http://libint.valeyev.net

 Your ORCA version has been built with support for libXC version: 5.1.0
 For citations please refer to: https://tddft.org/programs/libxc/

 This ORCA versions uses:
   CBLAS   interface :  Fast vector & matrix operations
   LAPACKE interface :  Fast linear algebra routines
   SCALAPACK package :  Parallel linear algebra routines
   Shared memory     :  Shared parallel matrices
   BLAS/LAPACK       :  OpenBLAS 0.3.15  USE64BITINT DYNAMIC_ARCH NO_AFFINITY Haswell SINGLE_THREADED
        Core in use  :  Haswell
   Copyright (c) 2011-2014, The OpenBLAS Project


================================================================================

----- Orbital basis set information -----
Your calculation utilizes the basis: def2-SVP
   F. Weigend and R. Ahlrichs, Phys. Chem. Chem. Phys. 7, 3297 (2005).

================================================================================
                                        WARNINGS
                       Please study these warnings very carefully!
================================================================================


WARNING: Geometry Optimization
  ===> : Switching off AutoStart
         For restart on a previous wavefunction, please use MOREAD

INFO   : the flag for use of the SHARK integral package has been found!

================================================================================
                                       INPUT FILE
================================================================================
NAME = freq.inp
|  1> # avogadro generated ORCA input file 
|  2> # Basic Mode
|  3> # 
|  4> ! RHF OPT FREQ def2-SVP PAL8 
|  5> 
|  6> * xyz 0 1
|  7>   C   -0.48413620204527      3.69699257752751     -2.01166466270423
|  8>   C   0.42089648388539      3.10695226086090     -0.95568605517521
|  9>   C   0.61296393519259      1.29545535193484      0.75331402535498
| 10>   C   0.98183093062431      2.14242272660766      1.96806050872577
| 11>   C   1.75574446201129      0.47381723109791      0.12988162673248
| 12>   C   4.05970116066772      0.40636151627705     -0.62789842095324
| 13>   N   -0.10090781016309      2.05307908430333     -0.27674299628716
| 14>   N   2.96601917046091      1.06701503845820      0.04522517443103
| 15>   O   1.54461787330450     -0.65368092930720     -0.21831223387753
| 16>   O   1.51995102564193      3.53349411056002     -0.73967574553829
| 17>   H   -0.98581128217649      1.69298602466891     -0.56493299006097
| 18>   H   2.91952386202509      2.06553744236217     -0.00737089961245
| 19>   H   4.30000899846994     -0.52467135828766     -0.11993155130537
| 20>   H   4.92411778263817      1.06533548607233     -0.61230517463254
| 21>   H   3.83103997250372      0.16021294174306     -1.66851278055214
| 22>   H   1.50077615300699      1.52704495384260      2.70238901331668
| 23>   H   0.06912678449149      2.52036619628610      2.43256883640165
| 24>   H   1.60837438764220      2.99023561846804      1.70964075147814
| 25>   H   -0.69233476696745      2.95630219352679     -2.78561755079490
| 26>   H   0.01038793521614      4.55691227177131     -2.45464302934648
| 27>   H   -1.43421199990924      4.00693118137942     -1.57296852467940
| 28>   H   -0.08292885652091      0.52168807984659      1.06799267907919
| 29> *
| 30> 
| 31> 
| 32>                          ****END OF INPUT****
================================================================================

                       *****************************
                       * Geometry Optimization Run *
                       *****************************

Geometry optimization settings:
Update method            Update   .... BFGS
Choice of coordinates    CoordSys .... Z-matrix Internals
Initial Hessian          InHess   .... Almoef's Model

Convergence Tolerances:
Energy Change            TolE     ....  5.0000e-06 Eh
Max. Gradient            TolMAXG  ....  3.0000e-04 Eh/bohr
RMS Gradient             TolRMSG  ....  1.0000e-04 Eh/bohr
Max. Displacement        TolMAXD  ....  4.0000e-03 bohr
RMS Displacement         TolRMSD  ....  2.0000e-03 bohr
Strict Convergence                ....  False
------------------------------------------------------------------------------
                        ORCA OPTIMIZATION COORDINATE SETUP
------------------------------------------------------------------------------

The optimization will be done in new redundant internal coordinates
Making redundant internal coordinates   ...  (new redundants) done
Evaluating the initial hessian          ...  (Almloef) done
Evaluating the coordinates              ...  done
Calculating the B-matrix                .... done
Calculating the G-matrix                .... done
Diagonalizing the G-matrix              .... done
Small eigenvalue found = 1.187e-02
Small eigenvalue found = 2.148e-02
Small eigenvalue found = 2.839e-02
The first mode is                       ....   38
The number of degrees of freedom        ....   60

    -----------------------------------------------------------------
                    Redundant Internal Coordinates


    -----------------------------------------------------------------
         Definition                    Initial Value    Approx d2E/dq
    -----------------------------------------------------------------
      1. B(C   1,C   0)                  1.5107         0.400970   
      2. B(C   3,C   2)                  1.5261         0.378945   
      3. B(C   4,C   2)                  1.5394         0.360915   
      4. B(N   6,C   2)                  1.4645         0.425686   
      5. B(N   6,C   1)                  1.3579         0.629635   
      6. B(N   7,C   5)                  1.4442         0.458576   
      7. B(N   7,C   4)                  1.3505         0.647017   
      8. B(O   8,C   4)                  1.1988         1.129692   
      9. B(O   9,C   1)                  1.1985         1.130638   
     10. B(H  10,N   6)                  0.9979         0.452401   
     11. B(H  11,N   7)                  1.0010         0.447275   
     12. B(H  12,C   5)                  1.0875         0.363457   
     13. B(H  13,C   5)                  1.0871         0.364006   
     14. B(H  14,C   5)                  1.0935         0.355493   
     15. B(H  15,C   3)                  1.0896         0.360627   
     16. B(H  16,C   3)                  1.0916         0.357961   
     17. B(H  17,C   3)                  1.0854         0.366218   
     18. B(H  18,C   0)                  1.0913         0.358362   
     19. B(H  19,C   0)                  1.0864         0.364906   
     20. B(H  20,C   0)                  1.0914         0.358249   
     21. B(H  21,C   2)                  1.0872         0.363822   
     22. A(C   1,C   0,H  19)          108.7515         0.328837   
     23. A(C   1,C   0,H  18)          110.1769         0.327857   
     24. A(H  18,C   0,H  20)          108.1637         0.290384   
     25. A(C   1,C   0,H  20)          110.5758         0.327840   
     26. A(H  18,C   0,H  19)          109.5661         0.291224   
     27. A(H  19,C   0,H  20)          109.5951         0.291210   
     28. A(N   6,C   1,O   9)          122.5791         0.479211   
     29. A(C   0,C   1,O   9)          122.4333         0.444248   
     30. A(C   0,C   1,N   6)          114.9863         0.400164   
     31. A(C   3,C   2,N   6)          112.9901         0.370163   
     32. A(N   6,C   2,H  21)          105.0560         0.329943   
     33. A(C   4,C   2,H  21)          102.2700         0.323034   
     34. A(C   4,C   2,N   6)          110.6799         0.367078   
     35. A(C   3,C   2,C   4)          116.0495         0.362100   
     36. A(C   3,C   2,H  21)          108.6211         0.325630   
     37. A(H  15,C   3,H  17)          109.0671         0.291678   
     38. A(C   2,C   3,H  17)          112.5511         0.325982   
     39. A(H  15,C   3,H  16)          107.8767         0.290634   
     40. A(C   2,C   3,H  16)          109.1937         0.324762   
     41. A(C   2,C   3,H  15)          109.7622         0.325158   
     42. A(H  16,C   3,H  17)          108.2707         0.291337   
     43. A(C   2,C   4,N   7)          117.1440         0.394717   
     44. A(N   7,C   4,O   8)          123.5563         0.481550   
     45. A(C   2,C   4,O   8)          119.2681         0.435820   
     46. A(H  13,C   5,H  14)          108.4445         0.290744   
     47. A(H  12,C   5,H  14)          107.3378         0.290675   
     48. A(N   7,C   5,H  14)          112.8402         0.332755   
     49. A(H  12,C   5,H  13)          109.6682         0.291758   
     50. A(N   7,C   5,H  13)          108.5539         0.334065   
     51. A(N   7,C   5,H  12)          109.9548         0.333981   
     52. A(C   2,N   6,H  10)          116.6618         0.339175   
     53. A(C   1,N   6,H  10)          118.4524         0.362351   
     54. A(C   1,N   6,C   2)          124.4631         0.401810   
     55. A(C   5,N   7,H  11)          117.8406         0.342769   
     56. A(C   4,N   7,H  11)          113.5677         0.363333   
     57. A(C   4,N   7,C   5)          120.4610         0.409090   
     58. D(N   6,C   1,C   0,H  20)     56.8899         0.011929   
     59. D(O   9,C   1,C   0,H  19)     -3.1303         0.011929   
     60. D(O   9,C   1,C   0,H  20)   -123.5109         0.011929   
     61. D(N   6,C   1,C   0,H  18)    -62.6277         0.011929   
     62. D(O   9,C   1,C   0,H  18)    116.9716         0.011929   
     63. D(N   6,C   1,C   0,H  19)    177.2705         0.011929   
     64. D(H  17,C   3,C   2,C   4)     70.5377         0.011448   
     65. D(H  16,C   3,C   2,H  21)    -54.7210         0.011448   
     66. D(H  15,C   3,C   2,C   4)    -51.1339         0.011448   
     67. D(H  15,C   3,C   2,N   6)    179.4922         0.011448   
     68. D(H  16,C   3,C   2,N   6)     61.4288         0.011448   
     69. D(H  17,C   3,C   2,N   6)    -58.8362         0.011448   
     70. D(H  15,C   3,C   2,H  21)     63.3424         0.011448   
     71. D(H  16,C   3,C   2,C   4)   -169.1973         0.011448   
     72. D(H  17,C   3,C   2,H  21)   -174.9860         0.011448   
     73. D(O   8,C   4,C   2,H  21)     19.8144         0.009791   
     74. D(O   8,C   4,C   2,N   6)    -91.6695         0.009791   
     75. D(O   8,C   4,C   2,C   3)    137.8505         0.009791   
     76. D(N   7,C   4,C   2,H  21)   -158.2129         0.009791   
     77. D(N   7,C   4,C   2,N   6)     90.3033         0.009791   
     78. D(N   7,C   4,C   2,C   3)    -40.1767         0.009791   
     79. D(H  10,N   6,C   2,C   4)    103.1548         0.015450   
     80. D(H  10,N   6,C   2,C   3)   -124.7751         0.015450   
     81. D(C   1,N   6,C   2,H  21)   -178.9247         0.015450   
     82. D(C   1,N   6,C   2,C   4)    -69.2446         0.015450   
     83. D(C   1,N   6,C   2,C   3)     62.8256         0.015450   
     84. D(H  10,N   6,C   1,O   9)   -174.2172         0.032181   
     85. D(H  10,N   6,C   1,C   0)      5.3814         0.032181   
     86. D(C   2,N   6,C   1,O   9)     -1.9436         0.032181   
     87. D(H  10,N   6,C   2,H  21)     -6.5253         0.015450   
     88. D(C   2,N   6,C   1,C   0)    177.6550         0.032181   
     89. D(H  11,N   7,C   5,H  14)    -88.8436         0.017949   
     90. D(H  11,N   7,C   5,H  13)     31.3878         0.017949   
     91. D(C   4,N   7,C   5,H  14)     57.7925         0.017949   
     92. D(C   4,N   7,C   5,H  13)    178.0239         0.017949   
     93. D(C   4,N   7,C   5,H  12)    -62.0049         0.017949   
     94. D(H  11,N   7,C   4,O   8)    155.2685         0.034137   
     95. D(H  11,N   7,C   5,H  12)    151.3590         0.017949   
     96. D(H  11,N   7,C   4,C   2)    -26.7967         0.034137   
     97. D(C   5,N   7,C   4,O   8)      7.3112         0.034137   
     98. D(C   5,N   7,C   4,C   2)   -174.7539         0.034137   
    -----------------------------------------------------------------

Number of atoms                         .... 22
Number of degrees of freedom            .... 98

         *************************************************************
         *                GEOMETRY OPTIMIZATION CYCLE   1            *
         *************************************************************
---------------------------------
CARTESIAN COORDINATES (ANGSTROEM)
---------------------------------
  C     -0.484136    3.696993   -2.011665
  C      0.420896    3.106952   -0.955686
  C      0.612964    1.295455    0.753314
  C      0.981831    2.142423    1.968061
  C      1.755744    0.473817    0.129882
  C      4.059701    0.406362   -0.627898
  N     -0.100908    2.053079   -0.276743
  N      2.966019    1.067015    0.045225
  O      1.544618   -0.653681   -0.218312
  O      1.519951    3.533494   -0.739676
  H     -0.985811    1.692986   -0.564933
  H      2.919524    2.065537   -0.007371
  H      4.300009   -0.524671   -0.119932
  H      4.924118    1.065335   -0.612305
  H      3.831040    0.160213   -1.668513
  H      1.500776    1.527045    2.702389
  H      0.069127    2.520366    2.432569
  H      1.608374    2.990236    1.709641
  H     -0.692335    2.956302   -2.785618
  H      0.010388    4.556912   -2.454643
  H     -1.434212    4.006931   -1.572969
  H     -0.082929    0.521688    1.067993

----------------------------
CARTESIAN COORDINATES (A.U.)
----------------------------
  NO LB      ZA    FRAG     MASS         X           Y           Z
   0 C     6.0000    0    12.011   -0.914885    6.986303   -3.801495
   1 C     6.0000    0    12.011    0.795379    5.871289   -1.805985
   2 C     6.0000    0    12.011    1.158334    2.448056    1.423557
   3 C     6.0000    0    12.011    1.855392    4.048592    3.719095
   4 C     6.0000    0    12.011    3.317876    0.895385    0.245441
   5 C     6.0000    0    12.011    7.671723    0.767912   -1.186556
   6 N     7.0000    0    14.007   -0.190688    3.879757   -0.522968
   7 N     7.0000    0    14.007    5.604964    2.016366    0.085463
   8 O     8.0000    0    15.999    2.918905   -1.235278   -0.412550
   9 O     8.0000    0    15.999    2.872291    6.677336   -1.397785
  10 H     1.0000    0     1.008   -1.862913    3.199280   -1.067569
  11 H     1.0000    0     1.008    5.517101    3.903300   -0.013929
  12 H     1.0000    0     1.008    8.125839   -0.991485   -0.226638
  13 H     1.0000    0     1.008    9.305234    2.013192   -1.157089
  14 H     1.0000    0     1.008    7.239616    0.302759   -3.153032
  15 H     1.0000    0     1.008    2.836056    2.885697    5.106775
  16 H     1.0000    0     1.008    0.130631    4.762802    4.596889
  17 H     1.0000    0     1.008    3.039387    5.650726    3.230753
  18 H     1.0000    0     1.008   -1.308323    5.586602   -5.264054
  19 H     1.0000    0     1.008    0.019630    8.611316   -4.638603
  20 H     1.0000    0     1.008   -2.710268    7.572003   -2.972480
  21 H     1.0000    0     1.008   -0.156713    0.985848    2.018214

--------------------------------
INTERNAL COORDINATES (ANGSTROEM)
--------------------------------
 C      0   0   0     0.000000000000     0.00000000     0.00000000
 C      1   0   0     1.510735766921     0.00000000     0.00000000
 C      2   1   0     2.497817493764   143.85794170     0.00000000
 C      3   2   1     1.526114547778    99.24736356   232.46715227
 C      3   2   1     1.539384451572    99.61809174   113.85592380
 C      5   3   2     2.426313529496   147.80602806    60.09441163
 N      2   1   3     1.357899875089   114.98632324   358.07821232
 N      5   3   2     1.350487031958   117.14400704    65.14577092
 O      5   3   2     1.198776669252   119.26809611   243.17299182
 O      2   1   3     1.198548826360   122.43332832   177.67747396
 H      7   2   1     0.997885083008   118.45241383     5.38138588
 H      8   5   3     1.000987088733   113.56771685   333.20333956
 H      6   5   3     1.087474326635    95.03422511   132.35635096
 H      6   5   3     1.087062987383   137.20183259     6.02625558
 H      6   5   3     1.093505054913    96.02175755   240.42224740
 H      4   3   2     1.089601899641   109.76217512   203.32051872
 H      4   3   2     1.091621780252   109.19370516    85.25713509
 H      4   3   2     1.085414286838   112.55108645   324.99214793
 H      1   2   3     1.091316617839   110.17693066   299.29410466
 H      1   2   3     1.086391198508   108.75147185   179.19224835
 H      1   2   3     1.091402886822   110.57580334    58.81164418
 H      3   2   1     1.087200636508   131.67982190   357.78515055

---------------------------
INTERNAL COORDINATES (A.U.)
---------------------------
 C      0   0   0     0.000000000000     0.00000000     0.00000000
 C      1   0   0     2.854876860200     0.00000000     0.00000000
 C      2   1   0     4.720190995731   143.85794170     0.00000000
 C      3   2   1     2.883938544294    99.24736356   232.46715227
 C      3   2   1     2.909015028287    99.61809174   113.85592380
 C      5   3   2     4.585068085776   147.80602806    60.09441163
 N      2   1   3     2.566058881204   114.98632324   358.07821232
 N      5   3   2     2.552050637812   117.14400704    65.14577092
 O      5   3   2     2.265359600620   119.26809611   243.17299182
 O      2   1   3     2.264929039954   122.43332832   177.67747396
 H      7   2   1     1.885729520010   118.45241383     5.38138588
 H      8   5   3     1.891591461296   113.56771685   333.20333956
 H      6   5   3     2.055028655010    95.03422511   132.35635096
 H      6   5   3     2.054251336476   137.20183259     6.02625558
 H      6   5   3     2.066425079845    96.02175755   240.42224740
 H      4   3   2     2.059049185322   109.76217512   203.32051872
 H      4   3   2     2.062866206500   109.19370516    85.25713509
 H      4   3   2     2.051135743970   112.55108645   324.99214793
 H      1   2   3     2.062289533112   110.17693066   299.29410466
 H      1   2   3     2.052981839482   108.75147185   179.19224835
 H      1   2   3     2.062452557864   110.57580334    58.81164418
 H      3   2   1     2.054511455625   131.67982190   357.78515055

---------------------
BASIS SET INFORMATION
---------------------
There are 4 groups of distinct atoms

 Group   1 Type C   : 7s4p1d contracted to 3s2p1d pattern {511/31/1}
 Group   2 Type N   : 7s4p1d contracted to 3s2p1d pattern {511/31/1}
 Group   3 Type O   : 7s4p1d contracted to 3s2p1d pattern {511/31/1}
 Group   4 Type H   : 4s1p contracted to 2s1p pattern {31/1}

Atom   0C    basis set group =>   1
Atom   1C    basis set group =>   1
Atom   2C    basis set group =>   1
Atom   3C    basis set group =>   1
Atom   4C    basis set group =>   1
Atom   5C    basis set group =>   1
Atom   6N    basis set group =>   2
Atom   7N    basis set group =>   2
Atom   8O    basis set group =>   3
Atom   9O    basis set group =>   3
Atom  10H    basis set group =>   4
Atom  11H    basis set group =>   4
Atom  12H    basis set group =>   4
Atom  13H    basis set group =>   4
Atom  14H    basis set group =>   4
Atom  15H    basis set group =>   4
Atom  16H    basis set group =>   4
Atom  17H    basis set group =>   4
Atom  18H    basis set group =>   4
Atom  19H    basis set group =>   4
Atom  20H    basis set group =>   4
Atom  21H    basis set group =>   4


           ************************************************************
           *        Program running with 8 parallel MPI-processes     *
           *              working on a common directory               *
           ************************************************************
------------------------------------------------------------------------------
                           ORCA GTO INTEGRAL CALCULATION
------------------------------------------------------------------------------
------------------------------------------------------------------------------
                   ___                                                        
                  /   \      - P O W E R E D   B Y -                         
                 /     \                                                     
                 |  |  |   _    _      __       _____    __    __             
                 |  |  |  | |  | |    /  \     |  _  \  |  |  /  |          
                  \  \/   | |  | |   /    \    | | | |  |  | /  /          
                 / \  \   | |__| |  /  /\  \   | |_| |  |  |/  /          
                |  |  |   |  __  | /  /__\  \  |    /   |      \           
                |  |  |   | |  | | |   __   |  |    \   |  |\   \          
                \     /   | |  | | |  |  |  |  | |\  \  |  | \   \       
                 \___/    |_|  |_| |__|  |__|  |_| \__\ |__|  \__/        
                                                                              
                      - O R C A' S   B I G   F R I E N D -                    
                                      &                                       
                       - I N T E G R A L  F E E D E R -                       
                                                                              
 v1 FN, 2020, v2 2021                                                         
------------------------------------------------------------------------------


Reading SHARK input file freq.SHARKINP.tmp ... ok
----------------------
SHARK INTEGRAL PACKAGE
----------------------

Number of atoms                             ...     22
Number of basis functions                   ...    200
Number of shells                            ...     96
Maximum angular momentum                    ...      2
Integral batch strategy                     ... SHARK/LIBINT Hybrid
RI-J (if used) integral strategy            ... SPLIT-RIJ (Revised 2003 algorithm where possible)
Printlevel                                  ...      1
Contraction scheme used                     ... SEGMENTED contraction
Coulomb Range Separation                    ... NOT USED
Exchange Range Separation                   ... NOT USED
Finite Nucleus Model                        ... NOT USED
Auxiliary Coulomb fitting basis             ... NOT available
Auxiliary J/K fitting basis                 ... NOT available
Auxiliary Correlation fitting basis         ... NOT available
Auxiliary 'external' fitting basis          ... NOT available
Integral threshold                          ...     2.500000e-11
Primitive cut-off                           ...     2.500000e-12
Primitive pair pre-selection threshold      ...     2.500000e-12

Calculating pre-screening integrals         ... done (  0.0 sec) Dimension = 96
Organizing shell pair data                  ... done (  0.1 sec)
Shell pair information
Total number of shell pairs                 ...      4656
Shell pairs after pre-screening             ...      4228
Total number of primitive shell pairs       ...     16456
Primitive shell pairs kept                  ...     10591
          la=0 lb=0:   1363 shell pairs
          la=1 lb=0:   1573 shell pairs
          la=1 lb=1:    471 shell pairs
          la=2 lb=0:    486 shell pairs
          la=2 lb=1:    284 shell pairs
          la=2 lb=2:     51 shell pairs

Calculating one electron integrals          ... done (  0.0 sec)
Calculating Nuclear repulsion               ... done (  0.0 sec) ENN=    569.217250955009 Eh

SHARK setup successfully completed in   0.3 seconds

Maximum memory used throughout the entire GTOINT-calculation: 10.6 MB


           ************************************************************
           *        Program running with 8 parallel MPI-processes     *
           *              working on a common directory               *
           ************************************************************
-------------------------------------------------------------------------------
                                 ORCA SCF
-------------------------------------------------------------------------------

------------
SCF SETTINGS
------------
Hamiltonian:
 Ab initio Hamiltonian  Method          .... Hartree-Fock(GTOs)


General Settings:
 Integral files         IntName         .... freq
 Hartree-Fock type      HFTyp           .... RHF
 Total Charge           Charge          ....    0
 Multiplicity           Mult            ....    1
 Number of Electrons    NEL             ....   78
 Basis Dimension        Dim             ....  200
 Nuclear Repulsion      ENuc            ....    569.2172509550 Eh

Convergence Acceleration:
 DIIS                   CNVDIIS         .... on
   Start iteration      DIISMaxIt       ....    12
   Startup error        DIISStart       ....  0.200000
   # of expansion vecs  DIISMaxEq       ....     5
   Bias factor          DIISBfac        ....   1.050
   Max. coefficient     DIISMaxC        ....  10.000
 Trust-Rad. Augm. Hess. CNVTRAH         .... auto
   Auto Start mean grad. ratio tolernc. ....  1.125000
   Auto Start start iteration           ....    20
   Auto Start num. interpolation iter.  ....    10
   Max. Number of Micro iterations      ....    16
   Max. Number of Macro iterations      .... Maxiter - #DIIS iter
   Number of Davidson start vectors     ....     2
   Converg. threshold I  (grad. norm)   ....   1.000e-05
   Converg. threshold II (energy diff.) ....   1.000e-08
   Grad. Scal. Fac. for Micro threshold ....   0.100
   Minimum threshold for Micro iter.    ....   0.010
   NR start threshold (gradient norm)   ....   0.001
   Initial trust radius                 ....   0.400
   Minimum AH scaling param. (alpha)    ....   1.000
   Maximum AH scaling param. (alpha)    .... 1000.000
   Orbital update algorithm             .... Taylor
   White noise on init. David. guess    .... on
   Maximum white noise                  ....   0.010
   Quad. conv. algorithm                .... NR
 SOSCF                  CNVSOSCF        .... on
   Start iteration      SOSCFMaxIt      ....   150
   Startup grad/error   SOSCFStart      ....  0.003300
 Level Shifting         CNVShift        .... on
   Level shift para.    LevelShift      ....    0.2500
   Turn off err/grad.   ShiftErr        ....    0.0010
 Zerner damping         CNVZerner       .... off
 Static damping         CNVDamp         .... on
   Fraction old density DampFac         ....    0.7000
   Max. Damping (<1)    DampMax         ....    0.9800
   Min. Damping (>=0)   DampMin         ....    0.0000
   Turn off err/grad.   DampErr         ....    0.1000
 Fernandez-Rico         CNVRico         .... off

SCF Procedure:
 Maximum # iterations   MaxIter         ....   125
 SCF integral mode      SCFMode         .... Direct
   Integral package                     .... SHARK and LIBINT hybrid scheme
 Reset frequency        DirectResetFreq ....    20
 Integral Threshold     Thresh          ....  2.500e-11 Eh
 Primitive CutOff       TCut            ....  2.500e-12 Eh

Convergence Tolerance:
 Convergence Check Mode ConvCheckMode   .... Total+1el-Energy
 Convergence forced     ConvForced      .... 0
 Energy Change          TolE            ....  1.000e-08 Eh
 1-El. energy change                    ....  1.000e-05 Eh
 Orbital Gradient       TolG            ....  1.000e-05
 Orbital Rotation angle TolX            ....  1.000e-05
 DIIS Error             TolErr          ....  5.000e-07


Diagonalization of the overlap matrix:
Smallest eigenvalue                        ... 1.559e-03
Time for diagonalization                   ...    0.008 sec
Threshold for overlap eigenvalues          ... 1.000e-08
Number of eigenvalues below threshold      ... 0
Time for construction of square roots      ...    0.008 sec
Total time needed                          ...    0.016 sec

Time for model grid setup =    0.168 sec

------------------------------
INITIAL GUESS: MODEL POTENTIAL
------------------------------
Loading Hartree-Fock densities                     ... done
Calculating cut-offs                               ... done
Initializing the effective Hamiltonian             ... done
Setting up the integral package (SHARK)            ... done
Starting the Coulomb interaction                   ... done (   0.1 sec)
Reading the grid                                   ... done
Mapping shells                                     ... done
Starting the XC term evaluation                    ... done (   0.0 sec)
Transforming the Hamiltonian                       ... done (   0.0 sec)
Diagonalizing the Hamiltonian                      ... done (   0.0 sec)
Back transforming the eigenvectors                 ... done (   0.0 sec)
Now organizing SCF variables                       ... done
                      ------------------
                      INITIAL GUESS DONE (   0.3 sec)
                      ------------------
--------------
SCF ITERATIONS
--------------
ITER       Energy         Delta-E        Max-DP      RMS-DP      [F,P]     Damp
               ***  Starting incremental Fock matrix formation  ***
  0   -492.0656382469   0.000000000000 0.06495877  0.00203797  0.2591913 0.7000
  1   -492.2157862559  -0.150148008961 0.04598619  0.00152760  0.1587780 0.7000
                               ***Turning on DIIS***
  2   -492.3058630424  -0.090076786511 0.09227759  0.00325087  0.0897695 0.0000
  3   -491.7847049821   0.521158060236 0.03459953  0.00100800  0.0520199 0.0000
  4   -492.5017229062  -0.717017924085 0.00984776  0.00033651  0.0072399 0.0000
  5   -492.4910179484   0.010704957831 0.00582779  0.00017156  0.0054707 0.0000
                      *** Initiating the SOSCF procedure ***
                           *** Shutting down DIIS ***
                      *** Re-Reading the Fockian *** 
                      *** Removing any level shift *** 
ITER      Energy       Delta-E        Grad      Rot      Max-DP    RMS-DP
  6   -492.49339711  -0.0023791615  0.001847  0.001847  0.003440  0.000097
               *** Restarting incremental Fock matrix formation ***
  7   -492.49317203   0.0002250839  0.000718  0.001262  0.001792  0.000048
  8   -492.49318875  -0.0000167235  0.000367  0.001426  0.001622  0.000049
  9   -492.49319507  -0.0000063197  0.000072  0.000085  0.000314  0.000007
 10   -492.49319531  -0.0000002446  0.000042  0.000037  0.000102  0.000003
 11   -492.49319540  -0.0000000837  0.000012  0.000017  0.000024  0.000001
 12   -492.49319540  -0.0000000055  0.000003  0.000008  0.000016  0.000000
                  ***Gradient check signals convergence***
              ***Rediagonalizing the Fockian in SOSCF/NRSCF***

               *****************************************************
               *                     SUCCESS                       *
               *           SCF CONVERGED AFTER  13 CYCLES          *
               *****************************************************


----------------
TOTAL SCF ENERGY
----------------

Total Energy       :         -492.49319540 Eh          -13401.42116 eV

Components:
Nuclear Repulsion  :          569.21725096 Eh           15489.18885 eV
Electronic Energy  :        -1061.71044636 Eh          -28890.61002 eV
One Electron Energy:        -1801.13330417 Eh          -49011.32889 eV
Two Electron Energy:          739.42285781 Eh           20120.71888 eV

Virial components:
Potential Energy   :         -983.07709736 Eh          -26750.88781 eV
Kinetic Energy     :          490.58390195 Eh           13349.46665 eV
Virial Ratio       :            2.00389188


---------------
SCF CONVERGENCE
---------------

  Last Energy change         ...   -3.3447e-10  Tolerance :   1.0000e-08
  Last MAX-Density change    ...    3.7576e-06  Tolerance :   1.0000e-07
  Last RMS-Density change    ...    1.0390e-07  Tolerance :   5.0000e-09
  Last Orbital Gradient      ...    9.0238e-07  Tolerance :   1.0000e-05
  Last Orbital Rotation      ...    9.3521e-07  Tolerance :   1.0000e-05

             **** THE GBW FILE WAS UPDATED (freq.gbw) ****
             **** DENSITY freq.scfp WAS UPDATED ****
             **** ENERGY FILE WAS UPDATED (freq.en.tmp) ****
             **** THE GBW FILE WAS UPDATED (freq.gbw) ****
             **** DENSITY freq.scfp WAS UPDATED ****
----------------
ORBITAL ENERGIES
----------------

  NO   OCC          E(Eh)            E(eV) 
   0   2.0000     -20.527704      -558.5872 
   1   2.0000     -20.506671      -558.0149 
   2   2.0000     -15.593777      -424.3282 
   3   2.0000     -15.563572      -423.5063 
   4   2.0000     -11.363058      -309.2045 
   5   2.0000     -11.335084      -308.4433 
   6   2.0000     -11.283497      -307.0396 
   7   2.0000     -11.254202      -306.2424 
   8   2.0000     -11.249410      -306.1120 
   9   2.0000     -11.229127      -305.5601 
  10   2.0000      -1.396908       -38.0118 
  11   2.0000      -1.372979       -37.3607 
  12   2.0000      -1.234718       -33.5984 
  13   2.0000      -1.208531       -32.8858 
  14   2.0000      -1.049874       -28.5685 
  15   2.0000      -0.989938       -26.9376 
  16   2.0000      -0.937238       -25.5035 
  17   2.0000      -0.880645       -23.9636 
  18   2.0000      -0.800872       -21.7928 
  19   2.0000      -0.761673       -20.7262 
  20   2.0000      -0.722066       -19.6484 
  21   2.0000      -0.703899       -19.1541 
  22   2.0000      -0.656169       -17.8553 
  23   2.0000      -0.641148       -17.4465 
  24   2.0000      -0.630702       -17.1623 
  25   2.0000      -0.618632       -16.8338 
  26   2.0000      -0.606871       -16.5138 
  27   2.0000      -0.585168       -15.9232 
  28   2.0000      -0.574380       -15.6297 
  29   2.0000      -0.566073       -15.4036 
  30   2.0000      -0.548414       -14.9231 
  31   2.0000      -0.540679       -14.7126 
  32   2.0000      -0.528914       -14.3925 
  33   2.0000      -0.518093       -14.0980 
  34   2.0000      -0.511586       -13.9210 
  35   2.0000      -0.441642       -12.0177 
  36   2.0000      -0.434542       -11.8245 
  37   2.0000      -0.393881       -10.7180 
  38   2.0000      -0.381473       -10.3804 
  39   0.0000       0.154187         4.1957 
  40   0.0000       0.175219         4.7680 
  41   0.0000       0.194084         5.2813 
  42   0.0000       0.196883         5.3575 
  43   0.0000       0.202643         5.5142 
  44   0.0000       0.226497         6.1633 
  45   0.0000       0.245754         6.6873 
  46   0.0000       0.248671         6.7667 
  47   0.0000       0.259269         7.0551 
  48   0.0000       0.264724         7.2035 
  49   0.0000       0.271300         7.3824 
  50   0.0000       0.283895         7.7252 
  51   0.0000       0.287727         7.8295 
  52   0.0000       0.313226         8.5233 
  53   0.0000       0.352647         9.5960 
  54   0.0000       0.374950        10.2029 
  55   0.0000       0.385468        10.4891 
  56   0.0000       0.422596        11.4994 
  57   0.0000       0.433272        11.7899 
  58   0.0000       0.450519        12.2592 
  59   0.0000       0.482726        13.1356 
  60   0.0000       0.530153        14.4262 
  61   0.0000       0.557832        15.1794 
  62   0.0000       0.601461        16.3666 
  63   0.0000       0.631465        17.1830 
  64   0.0000       0.636054        17.3079 
  65   0.0000       0.640880        17.4392 
  66   0.0000       0.644407        17.5352 
  67   0.0000       0.664782        18.0896 
  68   0.0000       0.694321        18.8934 
  69   0.0000       0.705533        19.1985 
  70   0.0000       0.719780        19.5862 
  71   0.0000       0.738329        20.0910 
  72   0.0000       0.786943        21.4138 
  73   0.0000       0.808137        21.9905 
  74   0.0000       0.829593        22.5744 
  75   0.0000       0.831405        22.6237 
  76   0.0000       0.853883        23.2353 
  77   0.0000       0.858192        23.3526 
  78   0.0000       0.870509        23.6877 
  79   0.0000       0.883271        24.0350 
  80   0.0000       0.883498        24.0412 
  81   0.0000       0.890988        24.2450 
  82   0.0000       0.897102        24.4114 
  83   0.0000       0.901858        24.5408 
  84   0.0000       0.905614        24.6430 
  85   0.0000       0.910677        24.7808 
  86   0.0000       0.921100        25.0644 
  87   0.0000       0.922603        25.1053 
  88   0.0000       0.941921        25.6310 
  89   0.0000       0.953557        25.9476 
  90   0.0000       0.961732        26.1701 
  91   0.0000       0.994651        27.0658 
  92   0.0000       0.997612        27.1464 
  93   0.0000       1.018714        27.7206 
  94   0.0000       1.062315        28.9071 
  95   0.0000       1.088826        29.6285 
  96   0.0000       1.106561        30.1110 
  97   0.0000       1.145592        31.1731 
  98   0.0000       1.152670        31.3657 
  99   0.0000       1.196703        32.5639 
 100   0.0000       1.229355        33.4525 
 101   0.0000       1.242031        33.7974 
 102   0.0000       1.263712        34.3873 
 103   0.0000       1.273982        34.6668 
 104   0.0000       1.357704        36.9450 
 105   0.0000       1.370768        37.3005 
 106   0.0000       1.397882        38.0383 
 107   0.0000       1.414652        38.4946 
 108   0.0000       1.447339        39.3841 
 109   0.0000       1.460722        39.7483 
 110   0.0000       1.490961        40.5711 
 111   0.0000       1.523699        41.4620 
 112   0.0000       1.537369        41.8339 
 113   0.0000       1.577184        42.9174 
 114   0.0000       1.623191        44.1693 
 115   0.0000       1.640531        44.6411 
 116   0.0000       1.655551        45.0498 
 117   0.0000       1.682069        45.7714 
 118   0.0000       1.706434        46.4344 
 119   0.0000       1.776327        48.3363 
 120   0.0000       1.778486        48.3951 
 121   0.0000       1.801522        49.0219 
 122   0.0000       1.811405        49.2908 
 123   0.0000       1.828662        49.7604 
 124   0.0000       1.840334        50.0780 
 125   0.0000       1.862120        50.6708 
 126   0.0000       1.885988        51.3203 
 127   0.0000       1.924866        52.3783 
 128   0.0000       1.946364        52.9632 
 129   0.0000       1.991506        54.1916 
 130   0.0000       2.011980        54.7487 
 131   0.0000       2.030916        55.2640 
 132   0.0000       2.055413        55.9306 
 133   0.0000       2.065674        56.2098 
 134   0.0000       2.073210        56.4149 
 135   0.0000       2.077045        56.5193 
 136   0.0000       2.087734        56.8101 
 137   0.0000       2.101566        57.1865 
 138   0.0000       2.114622        57.5418 
 139   0.0000       2.125355        57.8339 
 140   0.0000       2.171445        59.0880 
 141   0.0000       2.178179        59.2713 
 142   0.0000       2.192711        59.6667 
 143   0.0000       2.218595        60.3710 
 144   0.0000       2.232899        60.7603 
 145   0.0000       2.261574        61.5406 
 146   0.0000       2.278714        62.0070 
 147   0.0000       2.303126        62.6712 
 148   0.0000       2.304775        62.7161 
 149   0.0000       2.338996        63.6473 
 150   0.0000       2.344303        63.7917 
 151   0.0000       2.381792        64.8119 
 152   0.0000       2.410344        65.5888 
 153   0.0000       2.435857        66.2830 
 154   0.0000       2.462534        67.0090 
 155   0.0000       2.495172        67.8971 
 156   0.0000       2.530681        68.8633 
 157   0.0000       2.547029        69.3082 
 158   0.0000       2.579440        70.1901 
 159   0.0000       2.618350        71.2489 
 160   0.0000       2.675903        72.8150 
 161   0.0000       2.688868        73.1678 
 162   0.0000       2.741263        74.5936 
 163   0.0000       2.753338        74.9221 
 164   0.0000       2.761363        75.1405 
 165   0.0000       2.774048        75.4857 
 166   0.0000       2.795959        76.0819 
 167   0.0000       2.848527        77.5124 
 168   0.0000       2.869453        78.0818 
 169   0.0000       2.911043        79.2135 
 170   0.0000       2.946900        80.1892 
 171   0.0000       2.949093        80.2489 
 172   0.0000       2.991931        81.4146 
 173   0.0000       3.017466        82.1094 
 174   0.0000       3.048934        82.9657 
 175   0.0000       3.073739        83.6407 
 176   0.0000       3.111308        84.6630 
 177   0.0000       3.123215        84.9870 
 178   0.0000       3.138505        85.4031 
 179   0.0000       3.146760        85.6277 
 180   0.0000       3.208013        87.2945 
 181   0.0000       3.257472        88.6403 
 182   0.0000       3.280479        89.2664 
 183   0.0000       3.287171        89.4485 
 184   0.0000       3.301820        89.8471 
 185   0.0000       3.312859        90.1475 
 186   0.0000       3.330517        90.6280 
 187   0.0000       3.372569        91.7723 
 188   0.0000       3.384227        92.0895 
 189   0.0000       3.420561        93.0782 
 190   0.0000       3.510718        95.5315 
 191   0.0000       3.583398        97.5092 
 192   0.0000       3.592388        97.7538 
 193   0.0000       3.625682        98.6598 
 194   0.0000       3.673691        99.9662 
 195   0.0000       3.683024       100.2202 
 196   0.0000       3.977980       108.2463 
 197   0.0000       3.984486       108.4234 
 198   0.0000       4.101806       111.6158 
 199   0.0000       4.122396       112.1761 

                    ********************************
                    * MULLIKEN POPULATION ANALYSIS *
                    ********************************

-----------------------
MULLIKEN ATOMIC CHARGES
-----------------------
   0 C :   -0.039501
   1 C :    0.349213
   2 C :    0.058729
   3 C :    0.025446
   4 C :    0.386880
   5 C :    0.169017
   6 N :   -0.448361
   7 N :   -0.447376
   8 O :   -0.427128
   9 O :   -0.453076
  10 H :    0.155369
  11 H :    0.185611
  12 H :    0.043624
  13 H :    0.029633
  14 H :    0.031696
  15 H :    0.041423
  16 H :    0.031814
  17 H :    0.060775
  18 H :    0.063822
  19 H :    0.070689
  20 H :    0.058242
  21 H :    0.053459
Sum of atomic charges:    0.0000000

--------------------------------
MULLIKEN REDUCED ORBITAL CHARGES
--------------------------------
  0 C s       :     3.026425  s :     3.026425
      pz      :     0.967685  p :     2.979684
      px      :     0.991914
      py      :     1.020085
      dz2     :     0.002524  d :     0.033392
      dxz     :     0.009241
      dyz     :     0.009950
      dx2y2   :     0.005234
      dxy     :     0.006443
  1 C s       :     3.061922  s :     3.061922
      pz      :     0.804906  p :     2.444024
      px      :     0.878283
      py      :     0.760834
      dz2     :     0.016139  d :     0.144840
      dxz     :     0.040369
      dyz     :     0.016075
      dx2y2   :     0.036793
      dxy     :     0.035464
  2 C s       :     3.089592  s :     3.089592
      pz      :     0.872028  p :     2.785559
      px      :     0.970213
      py      :     0.943318
      dz2     :     0.013314  d :     0.066121
      dxz     :     0.014126
      dyz     :     0.016274
      dx2y2   :     0.004173
      dxy     :     0.018233
  3 C s       :     3.019594  s :     3.019594
      pz      :     0.908896  p :     2.918300
      px      :     1.010835
      py      :     0.998569
      dz2     :     0.005194  d :     0.036660
      dxz     :     0.007484
      dyz     :     0.010569
      dx2y2   :     0.003478
      dxy     :     0.009935
  4 C s       :     3.037463  s :     3.037463
      pz      :     0.728296  p :     2.432990
      px      :     0.836719
      py      :     0.867974
      dz2     :     0.011448  d :     0.142668
      dxz     :     0.019058
      dyz     :     0.029308
      dx2y2   :     0.032500
      dxy     :     0.050355
  5 C s       :     2.988603  s :     2.988603
      pz      :     0.959089  p :     2.789911
      px      :     0.857686
      py      :     0.973135
      dz2     :     0.013527  d :     0.052470
      dxz     :     0.008909
      dyz     :     0.008680
      dx2y2   :     0.006955
      dxy     :     0.014399
  6 N s       :     3.420572  s :     3.420572
      pz      :     1.432664  p :     4.004536
      px      :     1.223253
      py      :     1.348619
      dz2     :     0.003147  d :     0.023253
      dxz     :     0.004774
      dyz     :     0.005622
      dx2y2   :     0.004794
      dxy     :     0.004916
  7 N s       :     3.427558  s :     3.427558
      pz      :     1.666405  p :     3.994298
      px      :     1.173990
      py      :     1.153903
      dz2     :     0.002910  d :     0.025520
      dxz     :     0.004750
      dyz     :     0.001991
      dx2y2   :     0.008870
      dxy     :     0.006999
  8 O s       :     3.771574  s :     3.771574
      pz      :     1.492756  p :     4.634495
      px      :     1.783406
      py      :     1.358333
      dz2     :     0.002856  d :     0.021059
      dxz     :     0.000698
      dyz     :     0.006546
      dx2y2   :     0.006794
      dxy     :     0.004165
  9 O s       :     3.780258  s :     3.780258
      pz      :     1.653810  p :     4.652313
      px      :     1.354029
      py      :     1.644474
      dz2     :     0.002537  d :     0.020505
      dxz     :     0.004455
      dyz     :     0.001176
      dx2y2   :     0.006428
      dxy     :     0.005910
 10 H s       :     0.797910  s :     0.797910
      pz      :     0.009979  p :     0.046721
      px      :     0.026255
      py      :     0.010486
 11 H s       :     0.764696  s :     0.764696
      pz      :     0.010787  p :     0.049693
      px      :     0.005984
      py      :     0.032922
 12 H s       :     0.931242  s :     0.931242
      pz      :     0.006818  p :     0.025134
      px      :     0.003509
      py      :     0.014807
 13 H s       :     0.945216  s :     0.945216
      pz      :     0.004012  p :     0.025151
      px      :     0.012473
      py      :     0.008666
 14 H s       :     0.943429  s :     0.943429
      pz      :     0.016879  p :     0.024875
      px      :     0.003348
      py      :     0.004647
 15 H s       :     0.932850  s :     0.932850
      pz      :     0.010161  p :     0.025727
      px      :     0.007458
      py      :     0.008108
 16 H s       :     0.942774  s :     0.942774
      pz      :     0.006116  p :     0.025412
      px      :     0.013655
      py      :     0.005641
 17 H s       :     0.912523  s :     0.912523
      pz      :     0.004660  p :     0.026701
      px      :     0.008950
      py      :     0.013091
 18 H s       :     0.909593  s :     0.909593
      pz      :     0.011472  p :     0.026585
      px      :     0.004794
      py      :     0.010319
 19 H s       :     0.903400  s :     0.903400
      pz      :     0.005761  p :     0.025911
      px      :     0.006983
      py      :     0.013167
 20 H s       :     0.915339  s :     0.915339
      pz      :     0.006127  p :     0.026419
      px      :     0.014949
      py      :     0.005344
 21 H s       :     0.922845  s :     0.922845
      pz      :     0.003505  p :     0.023696
      px      :     0.008686
      py      :     0.011506


                     *******************************
                     * LOEWDIN POPULATION ANALYSIS *
                     *******************************

----------------------
LOEWDIN ATOMIC CHARGES
----------------------
   0 C :   -0.050625
   1 C :    0.160613
   2 C :    0.041311
   3 C :   -0.029955
   4 C :    0.143083
   5 C :    0.070910
   6 N :   -0.071714
   7 N :   -0.084295
   8 O :   -0.289080
   9 O :   -0.296837
  10 H :    0.076063
  11 H :    0.070480
  12 H :    0.021041
  13 H :    0.016634
  14 H :    0.011199
  15 H :    0.024294
  16 H :    0.019683
  17 H :    0.024608
  18 H :    0.037129
  19 H :    0.039499
  20 H :    0.034011
  21 H :    0.031951

-------------------------------
LOEWDIN REDUCED ORBITAL CHARGES
-------------------------------
  0 C s       :     2.836122  s :     2.836122
      pz      :     1.034334  p :     3.137059
      px      :     1.045333
      py      :     1.057391
      dz2     :     0.006076  d :     0.077444
      dxz     :     0.021286
      dyz     :     0.023142
      dx2y2   :     0.012158
      dxy     :     0.014782
  1 C s       :     2.830038  s :     2.830038
      pz      :     0.862466  p :     2.711226
      px      :     0.988554
      py      :     0.860206
      dz2     :     0.032721  d :     0.298123
      dxz     :     0.082018
      dyz     :     0.032052
      dx2y2   :     0.076009
      dxy     :     0.075322
  2 C s       :     2.836680  s :     2.836680
      pz      :     0.958265  p :     2.981844
      px      :     1.020028
      py      :     1.003552
      dz2     :     0.027826  d :     0.140165
      dxz     :     0.029207
      dyz     :     0.034550
      dx2y2   :     0.008393
      dxy     :     0.040189
  3 C s       :     2.829389  s :     2.829389
      pz      :     1.011636  p :     3.117596
      px      :     1.059256
      py      :     1.046705
      dz2     :     0.011779  d :     0.082970
      dxz     :     0.017134
      dyz     :     0.024114
      dx2y2   :     0.007678
      dxy     :     0.022265
  4 C s       :     2.833348  s :     2.833348
      pz      :     0.767175  p :     2.728901
      px      :     0.965769
      py      :     0.995957
      dz2     :     0.022424  d :     0.294668
      dxz     :     0.037800
      dyz     :     0.055679
      dx2y2   :     0.069649
      dxy     :     0.109116
  5 C s       :     2.816214  s :     2.816214
      pz      :     1.027911  p :     2.997213
      px      :     0.939928
      py      :     1.029374
      dz2     :     0.031255  d :     0.115663
      dxz     :     0.018778
      dyz     :     0.019470
      dx2y2   :     0.014961
      dxy     :     0.031199
  6 N s       :     3.048718  s :     3.048718
      pz      :     1.390395  p :     3.969215
      px      :     1.246918
      py      :     1.331902
      dz2     :     0.007311  d :     0.053781
      dxz     :     0.010242
      dyz     :     0.012484
      dx2y2   :     0.011666
      dxy     :     0.012078
  7 N s       :     3.057977  s :     3.057977
      pz      :     1.583312  p :     3.970110
      px      :     1.203903
      py      :     1.182896
      dz2     :     0.006179  d :     0.056208
      dxz     :     0.008188
      dyz     :     0.003556
      dx2y2   :     0.022172
      dxy     :     0.016113
  8 O s       :     3.533074  s :     3.533074
      pz      :     1.489406  p :     4.723094
      px      :     1.764297
      py      :     1.469391
      dz2     :     0.004196  d :     0.032912
      dxz     :     0.000948
      dyz     :     0.009082
      dx2y2   :     0.011957
      dxy     :     0.006730
  9 O s       :     3.528237  s :     3.528237
      pz      :     1.637023  p :     4.736325
      px      :     1.462957
      py      :     1.636345
      dz2     :     0.004469  d :     0.032275
      dxz     :     0.006389
      dyz     :     0.001386
      dx2y2   :     0.010313
      dxy     :     0.009719
 10 H s       :     0.788696  s :     0.788696
      pz      :     0.035270  p :     0.135241
      px      :     0.065554
      py      :     0.034418
 11 H s       :     0.787505  s :     0.787505
      pz      :     0.040771  p :     0.142015
      px      :     0.021693
      py      :     0.079551
 12 H s       :     0.913759  s :     0.913759
      pz      :     0.018225  p :     0.065200
      px      :     0.011600
      py      :     0.035375
 13 H s       :     0.918868  s :     0.918868
      pz      :     0.011829  p :     0.064498
      px      :     0.030324
      py      :     0.022345
 14 H s       :     0.924139  s :     0.924139
      pz      :     0.040441  p :     0.064662
      px      :     0.010852
      py      :     0.013368
 15 H s       :     0.909336  s :     0.909336
      pz      :     0.025857  p :     0.066371
      px      :     0.019421
      py      :     0.021093
 16 H s       :     0.914129  s :     0.914129
      pz      :     0.017632  p :     0.066188
      px      :     0.032174
      py      :     0.016383
 17 H s       :     0.905207  s :     0.905207
      pz      :     0.014867  p :     0.070185
      px      :     0.022946
      py      :     0.032372
 18 H s       :     0.894539  s :     0.894539
      pz      :     0.028515  p :     0.068332
      px      :     0.014237
      py      :     0.025580
 19 H s       :     0.892826  s :     0.892826
      pz      :     0.017055  p :     0.067676
      px      :     0.018044
      py      :     0.032577
 20 H s       :     0.897915  s :     0.897915
      pz      :     0.016997  p :     0.068074
      px      :     0.035852
      py      :     0.015225
 21 H s       :     0.900328  s :     0.900328
      pz      :     0.013850  p :     0.067721
      px      :     0.024894
      py      :     0.028977


                      *****************************
                      * MAYER POPULATION ANALYSIS *
                      *****************************

  NA   - Mulliken gross atomic population
  ZA   - Total nuclear charge
  QA   - Mulliken gross atomic charge
  VA   - Mayer's total valence
  BVA  - Mayer's bonded valence
  FA   - Mayer's free valence

  ATOM       NA         ZA         QA         VA         BVA        FA
  0 C      6.0395     6.0000    -0.0395     3.8686     3.8686     0.0000
  1 C      5.6508     6.0000     0.3492     4.0636     4.0636     0.0000
  2 C      5.9413     6.0000     0.0587     3.7744     3.7744    -0.0000
  3 C      5.9746     6.0000     0.0254     3.9095     3.9095     0.0000
  4 C      5.6131     6.0000     0.3869     4.0584     4.0584     0.0000
  5 C      5.8310     6.0000     0.1690     3.9064     3.9064    -0.0000
  6 N      7.4484     7.0000    -0.4484     2.9241     2.9241    -0.0000
  7 N      7.4474     7.0000    -0.4474     2.9950     2.9950    -0.0000
  8 O      8.4271     8.0000    -0.4271     2.0645     2.0645    -0.0000
  9 O      8.4531     8.0000    -0.4531     2.0163     2.0163     0.0000
 10 H      0.8446     1.0000     0.1554     0.9778     0.9778    -0.0000
 11 H      0.8144     1.0000     0.1856     0.9951     0.9951    -0.0000
 12 H      0.9564     1.0000     0.0436     0.9890     0.9890     0.0000
 13 H      0.9704     1.0000     0.0296     0.9849     0.9849    -0.0000
 14 H      0.9683     1.0000     0.0317     0.9830     0.9830     0.0000
 15 H      0.9586     1.0000     0.0414     0.9836     0.9836     0.0000
 16 H      0.9682     1.0000     0.0318     0.9869     0.9869    -0.0000
 17 H      0.9392     1.0000     0.0608     1.0061     1.0061     0.0000
 18 H      0.9362     1.0000     0.0638     0.9882     0.9882     0.0000
 19 H      0.9293     1.0000     0.0707     1.0040     1.0040     0.0000
 20 H      0.9418     1.0000     0.0582     0.9885     0.9885    -0.0000
 21 H      0.9465     1.0000     0.0535     0.9982     0.9982    -0.0000

  Mayer bond orders larger than 0.100000
B(  0-C ,  1-C ) :   0.9943 B(  0-C , 18-H ) :   0.9730 B(  0-C , 19-H ) :   0.9806 
B(  0-C , 20-H ) :   0.9755 B(  1-C ,  6-N ) :   1.1390 B(  1-C ,  9-O ) :   1.8950 
B(  2-C ,  3-C ) :   1.0294 B(  2-C ,  4-C ) :   0.9311 B(  2-C ,  6-N ) :   0.8646 
B(  2-C , 21-H ) :   0.9745 B(  3-C , 15-H ) :   0.9839 B(  3-C , 16-H ) :   0.9794 
B(  3-C , 17-H ) :   0.9712 B(  4-C ,  7-N ) :   1.1686 B(  4-C ,  8-O ) :   1.9927 
B(  5-C ,  7-N ) :   0.9211 B(  5-C , 12-H ) :   0.9895 B(  5-C , 13-H ) :   0.9931 
B(  5-C , 14-H ) :   0.9888 B(  6-N , 10-H ) :   0.9514 B(  7-N , 11-H ) :   0.9212 


-------
TIMINGS
-------

Total SCF time: 0 days 0 hours 0 min 13 sec 

Total time                  ....      13.229 sec
Sum of individual times     ....      12.685 sec  ( 95.9%)

Fock matrix formation       ....      12.110 sec  ( 91.5%)
Diagonalization             ....       0.087 sec  (  0.7%)
Density matrix formation    ....       0.006 sec  (  0.0%)
Population analysis         ....       0.024 sec  (  0.2%)
Initial guess               ....       0.102 sec  (  0.8%)
Orbital Transformation      ....       0.000 sec  (  0.0%)
Orbital Orthonormalization  ....       0.000 sec  (  0.0%)
DIIS solution               ....       0.115 sec  (  0.9%)
SOSCF solution              ....       0.074 sec  (  0.6%)

Maximum memory used throughout the entire SCF-calculation: 229.4 MB

-------------------------   --------------------
FINAL SINGLE POINT ENERGY      -492.493195403327
-------------------------   --------------------



           ************************************************************
           *        Program running with 8 parallel MPI-processes     *
           *              working on a common directory               *
           ************************************************************
------------------------------------------------------------------------------
                         ORCA SCF GRADIENT CALCULATION
------------------------------------------------------------------------------

Gradient of the Hartree-Fock SCF energy:
Hartree-Fock type                ... RHF
Number of operators              ...    1
Number of atoms                  ...   22
Basis set dimensions             ...  200
Integral neglect threshold       ... 2.5e-11
Integral primitive cutoff        ... 2.5e-12
SHARK Integral package           ... ON

Nuc. rep. gradient       (SHARK) ... done (  0.0 sec)
HCore & Overlap gradient (SHARK) ... done (  0.1 sec)
Two-Electron gradient    (SHARK) ... done (  3.7 sec)

------------------
CARTESIAN GRADIENT
------------------

   1   C   :   -0.000102687   -0.001475674   -0.000649248
   2   C   :    0.004523072    0.005803088   -0.001464235
   3   C   :    0.002781257   -0.000302109    0.004261136
   4   C   :    0.001353658    0.001745266   -0.000705043
   5   C   :   -0.000470165    0.005783686   -0.002947212
   6   C   :    0.001507441    0.001120462    0.001850375
   7   N   :   -0.003832987   -0.002093421   -0.000400655
   8   N   :    0.005793132   -0.002741169    0.003930068
   9   O   :   -0.001572152   -0.002664219   -0.001266939
  10   O   :   -0.001221778   -0.001738587    0.000521929
  11   H   :   -0.000843879   -0.000788108    0.000619455
  12   H   :   -0.003947767   -0.001148602   -0.001283683
  13   H   :   -0.001555536   -0.000132541   -0.000527961
  14   H   :   -0.001355948    0.000653002   -0.001368953
  15   H   :    0.001078332   -0.001037301   -0.000672053
  16   H   :   -0.000972202   -0.000020931   -0.000456976
  17   H   :   -0.000251347   -0.000351807    0.000661198
  18   H   :   -0.000874090    0.000004765   -0.000061463
  19   H   :   -0.000238294   -0.000145058   -0.000019625
  20   H   :    0.000416628    0.000306453    0.000282980
  21   H   :   -0.000340743    0.000158539    0.000250952
  22   H   :    0.000126058   -0.000935736   -0.000554048

Difference to translation invariance:
           :    0.0000000000   -0.0000000000    0.0000000000

Difference to rotation invariance:
           :   -0.0000001179   -0.0000011574   -0.0000001267

Norm of the cartesian gradient     ...    0.0162930494
RMS gradient                       ...    0.0020055357
MAX gradient                       ...    0.0058030885

-------
TIMINGS
-------

Total SCF gradient time            ...        3.901 sec

One electron gradient       ....       0.088 sec  (  2.3%)
Two electron gradient       ....       3.652 sec  ( 93.6%)

Maximum memory used throughout the entire SCFGRAD-calculation: 19.7 MB
------------------------------------------------------------------------------
                         ORCA GEOMETRY RELAXATION STEP
------------------------------------------------------------------------------

Reading the OPT-File                    .... done
Getting information on internals        .... done
Copying old internal coords+grads       .... done
Making the new internal coordinates     .... (new redundants).... done
Validating the new internal coordinates .... (new redundants).... done
Calculating the B-matrix                .... done
Calculating the G,G- and P matrices     .... done
Transforming gradient to internals      .... done
Projecting the internal gradient        .... done
Number of atoms                         ....  22
Number of internal coordinates          ....  98
Current Energy                          ....  -492.493195403 Eh
Current gradient norm                   ....     0.016293049 Eh/bohr
Maximum allowed component of the step   ....  0.300
Current trust radius                    ....  0.300
Evaluating the initial hessian          ....  (Almloef) done
Projecting the Hessian                  .... done
Forming the augmented Hessian           .... done
Diagonalizing the augmented Hessian     .... done
Last element of RFO vector              ....  0.990152937
Lowest eigenvalues of augmented Hessian:
 -0.000695812  0.009866122  0.011467025  0.011929633  0.015462058
Length of the computed step             ....  0.141382062
The final length of the internal step   ....  0.141382062
Converting the step to cartesian space:
 Initial RMS(Int)=    0.0142817449
Transforming coordinates:
 Iter   0:  RMS(Cart)=    0.0255328055 RMS(Int)=    0.8938292970
 Iter   1:  RMS(Cart)=    0.0007792078 RMS(Int)=    0.0002521245
 Iter   2:  RMS(Cart)=    0.0000453137 RMS(Int)=    0.0000142129
 Iter   3:  RMS(Cart)=    0.0000018595 RMS(Int)=    0.0000004904
 Iter   4:  RMS(Cart)=    0.0000001049 RMS(Int)=    0.0000000309
 Iter   5:  RMS(Cart)=    0.0000000041 RMS(Int)=    0.0000000010
done
Storing new coordinates                 .... done

                                .--------------------.
          ----------------------|Geometry convergence|-------------------------
          Item                value                   Tolerance       Converged
          ---------------------------------------------------------------------
          RMS gradient        0.0011589612            0.0001000000      NO
          MAX gradient        0.0048494121            0.0003000000      NO
          RMS step            0.0142817449            0.0020000000      NO
          MAX step            0.0512431548            0.0040000000      NO
          ........................................................
          Max(Bonds)      0.0033      Max(Angles)    1.12
          Max(Dihed)        2.94      Max(Improp)    0.00
          ---------------------------------------------------------------------

The optimization has not yet converged - more geometry cycles are needed


    ---------------------------------------------------------------------------
                         Redundant Internal Coordinates
                            (Angstroem and degrees)

        Definition                    Value    dE/dq     Step     New-Value
    ----------------------------------------------------------------------------
     1. B(C   1,C   0)                1.5107 -0.000198  0.0003    1.5110   
     2. B(C   3,C   2)                1.5261  0.000137 -0.0002    1.5259   
     3. B(C   4,C   2)                1.5394  0.000627 -0.0009    1.5385   
     4. B(N   6,C   2)                1.4645  0.001418 -0.0018    1.4627   
     5. B(N   6,C   1)                1.3579  0.003963 -0.0033    1.3546   
     6. B(N   7,C   5)                1.4442 -0.000188  0.0002    1.4444   
     7. B(N   7,C   4)                1.3505 -0.000202  0.0002    1.3507   
     8. B(O   8,C   4)                1.1988  0.003151 -0.0015    1.1973   
     9. B(O   9,C   1)                1.1985 -0.001645  0.0008    1.1993   
    10. B(H  10,N   6)                0.9979  0.000854 -0.0010    0.9969   
    11. B(H  11,N   7)                1.0010 -0.000895  0.0011    1.0020   
    12. B(H  12,C   5)                1.0875 -0.000477  0.0007    1.0882   
    13. B(H  13,C   5)                1.0871 -0.000702  0.0010    1.0881   
    14. B(H  14,C   5)                1.0935  0.000648 -0.0010    1.0925   
    15. B(H  15,C   3)                1.0896 -0.000759  0.0011    1.0907   
    16. B(H  16,C   3)                1.0916  0.000370 -0.0005    1.0911   
    17. B(H  17,C   3)                1.0854 -0.000486  0.0007    1.0861   
    18. B(H  18,C   0)                1.0913  0.000158 -0.0002    1.0911   
    19. B(H  19,C   0)                1.0864  0.000317 -0.0005    1.0859   
    20. B(H  20,C   0)                1.0914  0.000443 -0.0007    1.0908   
    21. B(H  21,C   2)                1.0872  0.000425 -0.0006    1.0866   
    22. A(C   1,C   0,H  19)          108.75 -0.000664    0.12    108.87   
    23. A(C   1,C   0,H  18)          110.18  0.000259   -0.06    110.12   
    24. A(H  18,C   0,H  20)          108.16 -0.000032   -0.00    108.16   
    25. A(C   1,C   0,H  20)          110.58 -0.000075    0.03    110.60   
    26. A(H  18,C   0,H  19)          109.57  0.000356   -0.09    109.47   
    27. A(H  19,C   0,H  20)          109.60  0.000168    0.01    109.60   
    28. A(N   6,C   1,O   9)          122.58 -0.001510    0.19    122.77   
    29. A(C   0,C   1,O   9)          122.43  0.001695   -0.21    122.22   
    30. A(C   0,C   1,N   6)          114.99 -0.000187    0.03    115.02   
    31. A(C   3,C   2,N   6)          112.99 -0.000933    0.17    113.16   
    32. A(N   6,C   2,H  21)          105.06  0.000430   -0.00    105.05   
    33. A(C   4,C   2,H  21)          102.27 -0.000886    0.22    102.49   
    34. A(C   4,C   2,N   6)          110.68 -0.001021    0.28    110.96   
    35. A(C   3,C   2,C   4)          116.05  0.002035   -0.42    115.63   
    36. A(C   3,C   2,H  21)          108.62  0.000301   -0.21    108.41   
    37. A(H  15,C   3,H  17)          109.07  0.000613   -0.22    108.85   
    38. A(C   2,C   3,H  17)          112.55  0.000133   -0.08    112.47   
    39. A(H  15,C   3,H  16)          107.88 -0.000276    0.18    108.06   
    40. A(C   2,C   3,H  16)          109.19  0.000153    0.02    109.21   
    41. A(C   2,C   3,H  15)          109.76 -0.000566    0.11    109.87   
    42. A(H  16,C   3,H  17)          108.27 -0.000068   -0.00    108.27   
    43. A(C   2,C   4,N   7)          117.14 -0.000063    0.02    117.17   
    44. A(N   7,C   4,O   8)          123.56  0.001047   -0.11    123.44   
    45. A(C   2,C   4,O   8)          119.27 -0.001003    0.14    119.41   
    46. A(H  13,C   5,H  14)          108.44 -0.000967    0.24    108.68   
    47. A(H  12,C   5,H  14)          107.34 -0.000911    0.26    107.60   
    48. A(N   7,C   5,H  14)          112.84  0.002073   -0.30    112.54   
    49. A(H  12,C   5,H  13)          109.67  0.001725   -0.48    109.19   
    50. A(N   7,C   5,H  13)          108.55 -0.000665    0.07    108.63   
    51. A(N   7,C   5,H  12)          109.95 -0.001203    0.19    110.14   
    52. A(C   2,N   6,H  10)          116.66  0.000797   -0.09    116.57   
    53. A(C   1,N   6,H  10)          118.45  0.002551   -0.36    118.09   
    54. A(C   1,N   6,C   2)          124.46 -0.003392    0.52    124.98   
    55. A(C   5,N   7,H  11)          117.84  0.001610   -0.04    117.80   
    56. A(C   4,N   7,H  11)          113.57 -0.004849    1.12    114.69   
    57. A(C   4,N   7,C   5)          120.46  0.003069   -0.19    120.27   
    58. D(N   6,C   1,C   0,H  20)     56.89  0.000346   -0.73     56.16   
    59. D(O   9,C   1,C   0,H  19)     -3.13 -0.000328    0.50     -2.63   
    60. D(O   9,C   1,C   0,H  20)   -123.51 -0.000068    0.40   -123.11   
    61. D(N   6,C   1,C   0,H  18)    -62.63  0.000267   -0.70    -63.33   
    62. D(O   9,C   1,C   0,H  18)    116.97 -0.000147    0.43    117.40   
    63. D(N   6,C   1,C   0,H  19)    177.27  0.000086   -0.62    176.65   
    64. D(H  17,C   3,C   2,C   4)     70.54  0.000022   -0.72     69.82   
    65. D(H  16,C   3,C   2,H  21)    -54.72  0.000424   -0.88    -55.60   
    66. D(H  15,C   3,C   2,C   4)    -51.13 -0.000449   -0.46    -51.59   
    67. D(H  15,C   3,C   2,N   6)    179.49  0.000026   -0.63    178.86   
    68. D(H  16,C   3,C   2,N   6)     61.43  0.000602   -0.93     60.50   
    69. D(H  17,C   3,C   2,N   6)    -58.84  0.000498   -0.89    -59.72   
    70. D(H  15,C   3,C   2,H  21)     63.34 -0.000151   -0.59     62.76   
    71. D(H  16,C   3,C   2,C   4)   -169.20  0.000126   -0.76   -169.95   
    72. D(H  17,C   3,C   2,H  21)   -174.99  0.000320   -0.84   -175.83   
    73. D(O   8,C   4,C   2,H  21)     19.81 -0.000287   -1.06     18.76   
    74. D(O   8,C   4,C   2,N   6)    -91.67  0.000051   -1.26    -92.93   
    75. D(O   8,C   4,C   2,C   3)    137.85  0.000520   -1.39    136.46   
    76. D(N   7,C   4,C   2,H  21)   -158.21  0.000259   -2.60   -160.82   
    77. D(N   7,C   4,C   2,N   6)     90.30  0.000597   -2.81     87.49   
    78. D(N   7,C   4,C   2,C   3)    -40.18  0.001066   -2.94    -43.11   
    79. D(H  10,N   6,C   2,C   4)    103.15 -0.000682   -0.20    102.96   
    80. D(H  10,N   6,C   2,C   3)   -124.78  0.000415   -0.39   -125.16   
    81. D(C   1,N   6,C   2,H  21)   -178.92  0.000729   -1.10   -180.02   
    82. D(C   1,N   6,C   2,C   4)    -69.24 -0.000504   -0.74    -69.98   
    83. D(C   1,N   6,C   2,C   3)     62.83  0.000593   -0.93     61.90   
    84. D(H  10,N   6,C   1,O   9)   -174.22  0.000151   -0.49   -174.71   
    85. D(H  10,N   6,C   1,C   0)      5.38 -0.000249    0.64      6.02   
    86. D(C   2,N   6,C   1,O   9)     -1.94 -0.000163    0.08     -1.87   
    87. D(H  10,N   6,C   2,H  21)     -6.53  0.000551   -0.56     -7.09   
    88. D(C   2,N   6,C   1,C   0)    177.66 -0.000563    1.21    178.86   
    89. D(H  11,N   7,C   5,H  14)    -88.84  0.000601   -0.17    -89.01   
    90. D(H  11,N   7,C   5,H  13)     31.39  0.000245   -0.01     31.38   
    91. D(C   4,N   7,C   5,H  14)     57.79 -0.001301    1.84     59.64   
    92. D(C   4,N   7,C   5,H  13)    178.02 -0.001656    2.00    180.02   
    93. D(C   4,N   7,C   5,H  12)    -62.00 -0.000678    1.58    -60.43   
    94. D(H  11,N   7,C   4,O   8)    155.27 -0.000467    1.30    156.57   
    95. D(H  11,N   7,C   5,H  12)    151.36  0.001224   -0.43    150.93   
    96. D(H  11,N   7,C   4,C   2)    -26.80 -0.001083    2.92    -23.87   
    97. D(C   5,N   7,C   4,O   8)      7.31 -0.000516   -0.29      7.02   
    98. D(C   5,N   7,C   4,C   2)   -174.75 -0.001132    1.33   -173.42   
    ----------------------------------------------------------------------------

         *************************************************************
         *                GEOMETRY OPTIMIZATION CYCLE   2            *
         *************************************************************
---------------------------------
CARTESIAN COORDINATES (ANGSTROEM)
---------------------------------
  C     -0.478739    3.697620   -2.008427
  C      0.430063    3.103120   -0.957827
  C      0.612456    1.292688    0.755416
  C      0.972536    2.141992    1.970927
  C      1.763030    0.464289    0.158076
  C      4.049819    0.409281   -0.644652
  N     -0.085590    2.045796   -0.286234
  N      2.962280    1.073406    0.035437
  O      1.563882   -0.671429   -0.164438
  O      1.520678    3.547173   -0.730367
  H     -0.964742    1.683257   -0.585305
  H      2.920462    2.073274   -0.015632
  H      4.296547   -0.521203   -0.137273
  H      4.918617    1.064244   -0.633111
  H      3.808761    0.166003   -1.682128
  H      1.470966    1.525074    2.719684
  H      0.058524    2.539858    2.414472
  H      1.619219    2.976896    1.717189
  H     -0.675505    2.964885   -2.792549
  H      0.005755    4.568392   -2.440019
  H     -1.433326    3.990114   -1.569171
  H     -0.090943    0.526059    1.068743

----------------------------
CARTESIAN COORDINATES (A.U.)
----------------------------
  NO LB      ZA    FRAG     MASS         X           Y           Z
   0 C     6.0000    0    12.011   -0.904685    6.987489   -3.795377
   1 C     6.0000    0    12.011    0.812700    5.864047   -1.810030
   2 C     6.0000    0    12.011    1.157374    2.442827    1.427529
   3 C     6.0000    0    12.011    1.837827    4.047778    3.724513
   4 C     6.0000    0    12.011    3.331645    0.877380    0.298721
   5 C     6.0000    0    12.011    7.653048    0.773428   -1.218216
   6 N     7.0000    0    14.007   -0.161742    3.865994   -0.540904
   7 N     7.0000    0    14.007    5.597897    2.028443    0.066966
   8 O     8.0000    0    15.999    2.955308   -1.268816   -0.310743
[...]
     50      -0.004922   0.025904   0.218703  -0.005347   0.235450   0.012614
     51      -0.004027   0.030291   0.261759   0.000032  -0.026009  -0.000859
     52      -0.004524   0.031039   0.269364   0.000259  -0.046749  -0.001993
     53       0.001180  -0.009651  -0.084515  -0.000094   0.014513   0.000628
     54       0.000504   0.067529  -0.008115   0.000700  -0.004379   0.083974
     55       0.003938   0.424151  -0.050570   0.003954  -0.022827   0.438790
     56       0.004639   0.507085  -0.060491   0.004688  -0.027235   0.524559
     57      -0.001582  -0.166612   0.019308   0.000389  -0.000881   0.024145
     58      -0.003077  -0.337550   0.039445   0.000599  -0.000933   0.031074
     59       0.001171   0.127826  -0.015009  -0.000322   0.000997  -0.023528
     60       0.004412   0.556589  -0.064818  -0.005864   0.033874  -0.649171
     61      -0.000932  -0.117765   0.013709   0.001139  -0.006681   0.127373
     62      -0.002029  -0.245146   0.028441   0.002444  -0.014362   0.272083
     63       0.001352   0.002795   0.024743  -0.001390   0.047565   0.003123
     64       0.003072   0.003417   0.025316  -0.001775   0.049831   0.003184
     65      -0.000565  -0.001966  -0.012296   0.000524  -0.019536  -0.001305
                 60         61         62         63         64         65    
      0      -0.000136  -0.000053   0.000742  -0.054938   0.000088   0.000058
      1      -0.000149  -0.000190   0.001012  -0.073776   0.000152   0.000049
      2       0.000137  -0.000027  -0.000283   0.019650   0.000092  -0.000005
      3       0.000121   0.000139  -0.000539  -0.001911  -0.002773  -0.000005
      4       0.000606   0.000106  -0.000259  -0.000872  -0.002006  -0.001299
      5      -0.000272  -0.000023  -0.000203  -0.000545  -0.000103   0.001006
      6      -0.058312   0.000301  -0.010445  -0.000054   0.000460  -0.000644
      7      -0.057056   0.000337  -0.010166   0.000078  -0.000344   0.001063
      8       0.022190  -0.000278   0.004564  -0.000104   0.000283  -0.001400
      9       0.005759  -0.000473  -0.059018  -0.000848   0.000024  -0.000090
     10       0.016257  -0.000193  -0.058371  -0.000799   0.000021   0.000022
     11      -0.006251   0.000122   0.037944   0.000499  -0.000085  -0.000235
     12       0.000006   0.000104  -0.000302  -0.000073  -0.000311  -0.000094
     13      -0.002727   0.001297  -0.000834  -0.000032  -0.000394   0.000007
     14      -0.000029   0.000124  -0.000100   0.000057   0.000060  -0.000060
     15       0.000365   0.019744   0.000108  -0.000068   0.000972   0.000059
     16       0.000483   0.079289  -0.000373  -0.000135  -0.001256  -0.000050
     17      -0.000522  -0.048248   0.000123   0.000073  -0.000300  -0.000019
     18       0.001212  -0.000023   0.000249   0.000208  -0.001094   0.064381
     19       0.001139  -0.000061   0.000329   0.000259   0.000361   0.027654
     20      -0.000033   0.000047  -0.000398  -0.000112  -0.001026   0.024656
     21       0.000193  -0.000723   0.000174   0.000042  -0.004589  -0.000113
     22       0.000208  -0.001023   0.000386  -0.000060   0.074572   0.001709
     23      -0.000103   0.000836   0.000073  -0.000008  -0.009304  -0.000216
     24       0.000419   0.000316   0.000125   0.000023  -0.000725  -0.000005
     25       0.001059  -0.000583   0.000320   0.000002  -0.001404   0.000045
     26      -0.000198  -0.000025  -0.000064  -0.000011   0.000339   0.000007
     27      -0.000069  -0.000082   0.000238   0.000702   0.001462  -0.000859
     28      -0.000084  -0.000046  -0.000076   0.000521   0.000966  -0.000572
     29      -0.000089   0.000017   0.000693   0.000070   0.000133  -0.000052
     30      -0.007286  -0.000093  -0.001294  -0.000670   0.020515  -0.864034
     31      -0.009032  -0.000003  -0.001271   0.001832   0.009416  -0.366049
     32       0.000395  -0.000025   0.000309  -0.001695   0.007246  -0.336569
     33       0.002138   0.002597   0.000729   0.000067   0.060825   0.001695
     34       0.000513   0.006913  -0.001690   0.000802  -0.986434  -0.022796
     35      -0.000833  -0.006949  -0.000775  -0.000051   0.129603   0.003244
     36       0.000666   0.194767  -0.001198  -0.000313   0.006947   0.000060
     37      -0.002996  -0.596353   0.003269   0.000902  -0.008510  -0.000002
     38       0.002758   0.503070  -0.002692  -0.000757   0.001943  -0.000062
     39      -0.005118  -0.441475   0.000613   0.001084  -0.003969  -0.000147
     40      -0.004015  -0.381191   0.000635   0.000892  -0.001588  -0.000088
     41       0.000317   0.021686  -0.000036  -0.000051   0.001446   0.000063
     42       0.000208   0.013640  -0.000081  -0.000020   0.001757   0.000010
     43       0.001406   0.035153   0.000602  -0.000080  -0.002627   0.000016
     44       0.002993   0.045274   0.001338  -0.000069  -0.005038   0.000063
     45       0.029356   0.000138  -0.108067  -0.001125  -0.000061  -0.000215
     46      -0.048473  -0.000298   0.168880   0.001983   0.000879   0.000388
     47       0.053128   0.000574  -0.202995  -0.002102  -0.001536  -0.000598
     48       0.027013   0.002398   0.200433   0.002866  -0.000895   0.000027
     49      -0.012818  -0.001407  -0.113125  -0.001621   0.000943   0.000138
     50      -0.014583  -0.001036  -0.078215  -0.001174   0.000906   0.000492
     51      -0.117510   0.003470   0.612660   0.008592  -0.001072   0.000196
     52      -0.119835   0.003658   0.640534   0.008932  -0.001589   0.000101
     53       0.039255  -0.001135  -0.183819  -0.002502   0.001887   0.000293
     54      -0.000072   0.000140  -0.000216   0.022440   0.000736  -0.000561
     55      -0.000233   0.000698  -0.001810   0.156002   0.000026  -0.000720
     56      -0.000289   0.000812  -0.002217   0.194432   0.000878  -0.000297
     57       0.000860   0.000752  -0.005300   0.375519  -0.000321  -0.000130
     58       0.001382   0.001403  -0.010766   0.779473   0.000470  -0.000118
     59      -0.000393  -0.000552   0.004126  -0.303129  -0.000546   0.000015
     60       0.000752  -0.000295  -0.002678   0.265882   0.001313  -0.001103
     61      -0.000189   0.000046   0.000573  -0.060604  -0.000269  -0.000392
     62      -0.000306   0.000108   0.001384  -0.116031  -0.000050   0.000147
     63       0.665872  -0.004858   0.120327   0.000548  -0.000166  -0.006628
     64       0.667546  -0.004536   0.122423   0.000481   0.000574  -0.007660
     65      -0.257749   0.001924  -0.042885  -0.000053  -0.000063   0.002786


-----------
IR SPECTRUM
-----------

 Mode   freq       eps      Int      T**2         TX        TY        TZ
       cm**-1   L/(mol*cm) km/mol    a.u.
----------------------------------------------------------------------------
  7:     40.96   0.000648    3.27  0.004937  (-0.029948  0.016899 -0.061274)
  8:     65.72   0.000846    4.28  0.004018  ( 0.024000  0.004810  0.058467)
  9:     81.87   0.001512    7.64  0.005762  ( 0.028714 -0.041864 -0.056438)
 10:    129.28   0.002534   12.81  0.006118  ( 0.060509 -0.046320 -0.017637)
 11:    148.35   0.000191    0.96  0.000401  ( 0.009349  0.003640  0.017325)
 12:    204.76   0.001183    5.98  0.001803  (-0.007530  0.041367 -0.005927)
 13:    226.83   0.000267    1.35  0.000367  ( 0.001477 -0.014231  0.012728)
 14:    262.98   0.000216    1.09  0.000257  (-0.004843 -0.005682  0.014180)
 15:    280.08   0.002419   12.22  0.002695  (-0.013992  0.003124 -0.049893)
 16:    345.93   0.002335   11.80  0.002106  ( 0.042396 -0.002222 -0.017429)
 17:    394.19   0.000909    4.60  0.000720  (-0.026805 -0.000294 -0.001120)
 18:    421.38   0.002465   12.46  0.001826  ( 0.005870  0.002373  0.042258)
 19:    501.35   0.017907   90.49  0.011146  (-0.059105  0.052124  0.070256)
 20:    583.16   0.004589   23.19  0.002456  ( 0.025336 -0.041011  0.011479)
 21:    656.43   0.005914   29.89  0.002812  (-0.027293  0.010261 -0.044287)
 22:    691.09   0.008105   40.96  0.003660  (-0.048541 -0.015056 -0.032820)
 23:    699.21   0.012590   63.62  0.005619  ( 0.019382  0.020591  0.069421)
 24:    752.71   0.000305    1.54  0.000127  ( 0.005417  0.008944 -0.004160)
 25:    872.27   0.000591    2.99  0.000212  ( 0.006813  0.001293  0.012784)
 26:    908.00   0.002267   11.46  0.000779  ( 0.026487 -0.007792  0.004110)
 27:    983.01   0.000829    4.19  0.000263  (-0.012319 -0.010560  0.000060)
 28:   1017.36   0.001337    6.76  0.000410  (-0.011400 -0.011241  0.012400)
 29:   1071.52   0.000866    4.38  0.000252  ( 0.009626 -0.012636  0.000119)
 30:   1117.43   0.001776    8.97  0.000496  ( 0.011590  0.014247 -0.012593)
 31:   1150.72   0.002217   11.21  0.000601  ( 0.008814 -0.013147 -0.018729)
 32:   1205.95   0.002448   12.37  0.000634  (-0.011267  0.001844  0.022432)
 33:   1233.39   0.000168    0.85  0.000042  (-0.000878  0.006384  0.000976)
 34:   1244.74   0.001887    9.54  0.000473  (-0.021658  0.001701 -0.001026)
 35:   1259.63   0.004168   21.06  0.001033  (-0.027240  0.016193  0.005332)
 36:   1294.03   0.000748    3.78  0.000180  ( 0.009312 -0.005941 -0.007634)
 37:   1399.01   0.021414  108.22  0.004777  ( 0.030991 -0.052318  0.032847)
 38:   1439.01   0.001635    8.26  0.000355  (-0.010619  0.014486  0.005649)
 39:   1447.17   0.010685   54.00  0.002304  (-0.024797 -0.015810  0.037938)
 40:   1506.13   0.006507   32.88  0.001348  ( 0.003435  0.033837 -0.013835)
 41:   1515.53   0.005457   27.58  0.001124  ( 0.015198 -0.019832  0.022348)
 42:   1534.87   0.010059   50.83  0.002045  ( 0.008935 -0.020991  0.039047)
 43:   1567.49   0.004246   21.46  0.000845  (-0.020853 -0.019569  0.005249)
 44:   1569.42   0.001027    5.19  0.000204  (-0.006474 -0.006064  0.011208)
 45:   1583.22   0.001868    9.44  0.000368  (-0.007818  0.012100  0.012677)
 46:   1589.78   0.001025    5.18  0.000201  (-0.006595 -0.011664  0.004646)
 47:   1592.46   0.004176   21.10  0.000818  (-0.028319 -0.002869 -0.002864)
 48:   1607.33   0.000254    1.28  0.000049  (-0.005327  0.003032 -0.003422)
 49:   1617.24   0.000596    3.01  0.000115  ( 0.002193  0.010407  0.001405)
 50:   1700.44   0.050120  253.29  0.009198  ( 0.002086 -0.079044  0.054275)
 51:   1741.45   0.065146  329.22  0.011674  (-0.094417 -0.023457  0.047002)
 52:   1945.46   0.038867  196.42  0.006234  (-0.075798  0.004976 -0.021550)
 53:   1964.05   0.102989  520.47  0.016364  ( 0.055201  0.114993 -0.009659)
 54:   3183.21   0.012233   61.82  0.001199  (-0.023188  0.010919  0.023289)
 55:   3193.24   0.001120    5.66  0.000109  (-0.007342 -0.001000 -0.007383)
 56:   3193.49   0.003751   18.96  0.000367  ( 0.005315 -0.005067 -0.017682)
 57:   3267.98   0.006918   34.96  0.000661  ( 0.018317  0.008537  0.015881)
 58:   3271.81   0.004822   24.37  0.000460  ( 0.015665 -0.013856  0.004745)
 59:   3274.57   0.002154   10.89  0.000205  ( 0.008180 -0.008024 -0.008602)
 60:   3280.05   0.001771    8.95  0.000169  (-0.008872 -0.008698  0.003764)
 61:   3309.42   0.002934   14.82  0.000277  ( 0.003222  0.013751 -0.008784)
 62:   3323.68   0.001722    8.70  0.000162  (-0.008420 -0.006855  0.006616)
 63:   3331.20   0.000855    4.32  0.000080  (-0.004422 -0.007110  0.003152)
 64:   3824.80   0.035781  180.82  0.002919  ( 0.015114 -0.050621  0.011333)
 65:   3879.09   0.011133   56.26  0.000896  (-0.024824 -0.015926 -0.005074)

* The epsilon (eps) is given for a Dirac delta lineshape.
** The dipole moment derivative (T) already includes vibrational overlap.

The first frequency considered to be a vibration is 7
The total number of vibrations considered is 59


--------------------------
THERMOCHEMISTRY AT 298.15K
--------------------------

Temperature         ... 298.15 K
Pressure            ... 1.00 atm
Total Mass          ... 144.17 AMU

Throughout the following assumptions are being made:
  (1) The electronic state is orbitally nondegenerate
  (2) There are no thermally accessible electronically excited states
  (3) Hindered rotations indicated by low frequency modes are not
      treated as such but are treated as vibrations and this may
      cause some error
  (4) All equations used are the standard statistical mechanics
      equations for an ideal gas
  (5) All vibrations are strictly harmonic

freq.      40.96  E(vib)   ...       0.54 
freq.      65.72  E(vib)   ...       0.50 
freq.      81.87  E(vib)   ...       0.48 
freq.     129.28  E(vib)   ...       0.43 
freq.     148.35  E(vib)   ...       0.41 
freq.     204.76  E(vib)   ...       0.35 
freq.     226.83  E(vib)   ...       0.33 
freq.     262.98  E(vib)   ...       0.29 
freq.     280.08  E(vib)   ...       0.28 
freq.     345.93  E(vib)   ...       0.23 
freq.     394.19  E(vib)   ...       0.20 
freq.     421.38  E(vib)   ...       0.18 
freq.     501.35  E(vib)   ...       0.14 
freq.     583.16  E(vib)   ...       0.11 
freq.     656.43  E(vib)   ...       0.08 
freq.     691.09  E(vib)   ...       0.07 
freq.     699.21  E(vib)   ...       0.07 
freq.     752.71  E(vib)   ...       0.06 
freq.     872.27  E(vib)   ...       0.04 
freq.     908.00  E(vib)   ...       0.03 
freq.     983.01  E(vib)   ...       0.02 
freq.    1017.36  E(vib)   ...       0.02 
freq.    1071.52  E(vib)   ...       0.02 
freq.    1117.43  E(vib)   ...       0.01 
freq.    1150.72  E(vib)   ...       0.01 
freq.    1205.95  E(vib)   ...       0.01 
freq.    1233.39  E(vib)   ...       0.01 
freq.    1244.74  E(vib)   ...       0.01 
freq.    1259.63  E(vib)   ...       0.01 
freq.    1294.03  E(vib)   ...       0.01 
freq.    1399.01  E(vib)   ...       0.00 
freq.    1439.01  E(vib)   ...       0.00 
freq.    1447.17  E(vib)   ...       0.00 
freq.    1506.13  E(vib)   ...       0.00 
freq.    1515.53  E(vib)   ...       0.00 
freq.    1534.87  E(vib)   ...       0.00 
freq.    1567.49  E(vib)   ...       0.00 
freq.    1569.42  E(vib)   ...       0.00 
freq.    1583.22  E(vib)   ...       0.00 
freq.    1589.78  E(vib)   ...       0.00 
freq.    1592.46  E(vib)   ...       0.00 
freq.    1607.33  E(vib)   ...       0.00 
freq.    1617.24  E(vib)   ...       0.00 
freq.    1700.44  E(vib)   ...       0.00 
freq.    1741.45  E(vib)   ...       0.00 
freq.    1945.46  E(vib)   ...       0.00 
freq.    1964.05  E(vib)   ...       0.00 
freq.    3183.21  E(vib)   ...       0.00 
freq.    3193.24  E(vib)   ...       0.00 
freq.    3193.49  E(vib)   ...       0.00 
freq.    3267.98  E(vib)   ...       0.00 
freq.    3271.81  E(vib)   ...       0.00 
freq.    3274.57  E(vib)   ...       0.00 
freq.    3280.05  E(vib)   ...       0.00 
freq.    3309.42  E(vib)   ...       0.00 
freq.    3323.68  E(vib)   ...       0.00 
freq.    3331.20  E(vib)   ...       0.00 
freq.    3824.80  E(vib)   ...       0.00 
freq.    3879.09  E(vib)   ...       0.00 

------------
INNER ENERGY
------------

The inner energy is: U= E(el) + E(ZPE) + E(vib) + E(rot) + E(trans)
    E(el)   - is the total energy from the electronic structure calculation
              = E(kin-el) + E(nuc-el) + E(el-el) + E(nuc-nuc)
    E(ZPE)  - the the zero temperature vibrational energy from the frequency calculation
    E(vib)  - the the finite temperature correction to E(ZPE) due to population
              of excited vibrational states
    E(rot)  - is the rotational thermal energy
    E(trans)- is the translational thermal energy

Summary of contributions to the inner energy U:
Electronic energy                ...   -492.49527043 Eh
Zero point energy                ...      0.19933264 Eh     125.08 kcal/mol
Thermal vibrational correction   ...      0.00794668 Eh       4.99 kcal/mol
Thermal rotational correction    ...      0.00141627 Eh       0.89 kcal/mol
Thermal translational correction ...      0.00141627 Eh       0.89 kcal/mol
-----------------------------------------------------------------------
Total thermal energy                   -492.28515857 Eh


Summary of corrections to the electronic energy:
(perhaps to be used in another calculation)
Total thermal correction                  0.01077922 Eh       6.76 kcal/mol
Non-thermal (ZPE) correction              0.19933264 Eh     125.08 kcal/mol
-----------------------------------------------------------------------
Total correction                          0.21011186 Eh     131.85 kcal/mol


--------
ENTHALPY
--------

The enthalpy is H = U + kB*T
                kB is Boltzmann's constant
Total free energy                 ...   -492.28515857 Eh 
Thermal Enthalpy correction       ...      0.00094421 Eh       0.59 kcal/mol
-----------------------------------------------------------------------
Total Enthalpy                    ...   -492.28421436 Eh


Note: Only C1 symmetry has been detected, increase convergence thresholds 
      if your molecule has a higher symmetry. Symmetry factor of 1.0 is   
      used for the rotational entropy correction. 
 

Note: Rotational entropy computed according to Herzberg 
Infrared and Raman Spectra, Chapter V,1, Van Nostrand Reinhold, 1945 
Point Group:  C1, Symmetry Number:   1  
Rotational constants in cm-1:     0.064830     0.030013     0.025920 

Vibrational entropy computed according to the QRRHO of S. Grimme
Chem.Eur.J. 2012 18 9955


-------
ENTROPY
-------

The entropy contributions are T*S = T*(S(el)+S(vib)+S(rot)+S(trans))
     S(el)   - electronic entropy
     S(vib)  - vibrational entropy
     S(rot)  - rotational entropy
     S(trans)- translational entropy
The entropies will be listed as multiplied by the temperature to get
units of energy

Electronic entropy                ...      0.00000000 Eh      0.00 kcal/mol
Vibrational entropy               ...      0.01407794 Eh      8.83 kcal/mol
Rotational entropy                ...      0.01418209 Eh      8.90 kcal/mol
Translational entropy             ...      0.01938939 Eh     12.17 kcal/mol
-----------------------------------------------------------------------
Final entropy term                ...      0.04764942 Eh     29.90 kcal/mol

In case the symmetry of your molecule has not been determined correctly
or in case you have a reason to use a different symmetry number we print 
out the resulting rotational entropy values for sn=1,12 :
 --------------------------------------------------------
|  sn= 1 | S(rot)=       0.01418209 Eh      8.90 kcal/mol|
|  sn= 2 | S(rot)=       0.01352763 Eh      8.49 kcal/mol|
|  sn= 3 | S(rot)=       0.01314480 Eh      8.25 kcal/mol|
|  sn= 4 | S(rot)=       0.01287318 Eh      8.08 kcal/mol|
|  sn= 5 | S(rot)=       0.01266249 Eh      7.95 kcal/mol|
|  sn= 6 | S(rot)=       0.01249034 Eh      7.84 kcal/mol|
|  sn= 7 | S(rot)=       0.01234480 Eh      7.75 kcal/mol|
|  sn= 8 | S(rot)=       0.01221872 Eh      7.67 kcal/mol|
|  sn= 9 | S(rot)=       0.01210751 Eh      7.60 kcal/mol|
|  sn=10 | S(rot)=       0.01200803 Eh      7.54 kcal/mol|
|  sn=11 | S(rot)=       0.01191804 Eh      7.48 kcal/mol|
|  sn=12 | S(rot)=       0.01183589 Eh      7.43 kcal/mol|
 --------------------------------------------------------


-------------------
GIBBS FREE ENERGY
-------------------

The Gibbs free energy is G = H - T*S

Total enthalpy                    ...   -492.28421436 Eh 
Total entropy correction          ...     -0.04764942 Eh    -29.90 kcal/mol
-----------------------------------------------------------------------
Final Gibbs free energy         ...   -492.33186378 Eh

For completeness - the Gibbs free energy minus the electronic energy
G-E(el)                           ...      0.16340665 Eh    102.54 kcal/mol


Timings for individual modules:

Sum of individual times         ...      428.605 sec (=   7.143 min)
GTO integral calculation        ...       24.224 sec (=   0.404 min)   5.7 %
SCF iterations                  ...      118.167 sec (=   1.969 min)  27.6 %
SCF Gradient evaluation         ...       61.820 sec (=   1.030 min)  14.4 %
Geometry relaxation             ...        0.515 sec (=   0.009 min)   0.1 %
Analytical frequency calculation...      223.879 sec (=   3.731 min)  52.2 %
                             ****ORCA TERMINATED NORMALLY****
TOTAL RUN TIME: 0 days 0 hours 7 minutes 29 seconds 16 msec
