
                                 *****************
                                 * O   R   C   A *
                                 *****************

                                            #,                                       
                                            ###                                      
                                            ####                                     
                                            #####                                    
                                            ######                                   
                                           ########,                                 
                                     ,,################,,,,,                         
                               ,,#################################,,                 
                          ,,##########################################,,             
                       ,#########################################, ''#####,          
                    ,#############################################,,   '####,        
                  ,##################################################,,,,####,       
                ,###########''''           ''''###############################       
              ,#####''   ,,,,##########,,,,          '''####'''          '####       
            ,##' ,,,,###########################,,,                        '##       
           ' ,,###''''                  '''############,,,                           
         ,,##''                                '''############,,,,        ,,,,,,###''
      ,#''                                            '''#######################'''  
     '                                                          ''''####''''         
             ,#######,   #######,   ,#######,      ##                                
            ,#'     '#,  ##    ##  ,#'     '#,    #''#        ######   ,####,        
            ##       ##  ##   ,#'  ##            #'  '#       #        #'  '#        
            ##       ##  #######   ##           ,######,      #####,   #    #        
            '#,     ,#'  ##    ##  '#,     ,#' ,#      #,         ##   #,  ,#        
             '#######'   ##     ##  '#######'  #'      '#     #####' # '####'        



                  #######################################################
                  #                        -***-                        #
                  #          Department of theory and spectroscopy      #
                  #    Directorship and core code : Frank Neese         #
                  #        Max Planck Institute fuer Kohlenforschung    #
                  #                Kaiser Wilhelm Platz 1               #
                  #                 D-45470 Muelheim/Ruhr               #
                  #                      Germany                        #
                  #                                                     #
                  #                  All rights reserved                #
                  #                        -***-                        #
                  #######################################################


                         Program Version 5.0.4 -  RELEASE  -


 With contributions from (in alphabetic order):
   Daniel Aravena         : Magnetic Suceptibility
   Michael Atanasov       : Ab Initio Ligand Field Theory (pilot matlab implementation)
   Alexander A. Auer      : GIAO ZORA, VPT2 properties, NMR spectrum
   Ute Becker             : Parallelization
   Giovanni Bistoni       : ED, misc. LED, open-shell LED, HFLD
   Martin Brehm           : Molecular dynamics
   Dmytro Bykov           : SCF Hessian
   Vijay G. Chilkuri      : MRCI spin determinant printing, contributions to CSF-ICE
   Dipayan Datta          : RHF DLPNO-CCSD density
   Achintya Kumar Dutta   : EOM-CC, STEOM-CC
   Dmitry Ganyushin       : Spin-Orbit,Spin-Spin,Magnetic field MRCI
   Miquel Garcia          : C-PCM and meta-GGA Hessian, CC/C-PCM, Gaussian charge scheme
   Yang Guo               : DLPNO-NEVPT2, F12-NEVPT2, CIM, IAO-localization
   Andreas Hansen         : Spin unrestricted coupled pair/coupled cluster methods
   Benjamin Helmich-Paris : MC-RPA, TRAH-SCF, COSX integrals
   Lee Huntington         : MR-EOM, pCC
   Robert Izsak           : Overlap fitted RIJCOSX, COSX-SCS-MP3, EOM
   Marcus Kettner         : VPT2
   Christian Kollmar      : KDIIS, OOCD, Brueckner-CCSD(T), CCSD density, CASPT2, CASPT2-K
   Simone Kossmann        : Meta GGA functionals, TD-DFT gradient, OOMP2, MP2 Hessian
   Martin Krupicka        : Initial AUTO-CI
   Lucas Lang             : DCDCAS
   Marvin Lechner         : AUTO-CI (C++ implementation), FIC-MRCC
   Dagmar Lenk            : GEPOL surface, SMD
   Dimitrios Liakos       : Extrapolation schemes; Compound Job, initial MDCI parallelization
   Dimitrios Manganas     : Further ROCIS development; embedding schemes
   Dimitrios Pantazis     : SARC Basis sets
   Anastasios Papadopoulos: AUTO-CI, single reference methods and gradients
   Taras Petrenko         : DFT Hessian,TD-DFT gradient, ASA, ECA, R-Raman, ABS, FL, XAS/XES, NRVS
   Peter Pinski           : DLPNO-MP2, DLPNO-MP2 Gradient
   Christoph Reimann      : Effective Core Potentials
   Marius Retegan         : Local ZFS, SOC
   Christoph Riplinger    : Optimizer, TS searches, QM/MM, DLPNO-CCSD(T), (RO)-DLPNO pert. Triples
   Tobias Risthaus        : Range-separated hybrids, TD-DFT gradient, RPA, STAB
   Michael Roemelt        : Original ROCIS implementation
   Masaaki Saitow         : Open-shell DLPNO-CCSD energy and density
   Barbara Sandhoefer     : DKH picture change effects
   Avijit Sen             : IP-ROCIS
   Kantharuban Sivalingam : CASSCF convergence, NEVPT2, FIC-MRCI
   Bernardo de Souza      : ESD, SOC TD-DFT
   Georgi Stoychev        : AutoAux, RI-MP2 NMR, DLPNO-MP2 response
   Willem Van den Heuvel  : Paramagnetic NMR
   Boris Wezisla          : Elementary symmetry handling
   Frank Wennmohs         : Technical directorship


 We gratefully acknowledge several colleagues who have allowed us to
 interface, adapt or use parts of their codes:
   Stefan Grimme, W. Hujo, H. Kruse, P. Pracht,  : VdW corrections, initial TS optimization,
                  C. Bannwarth, S. Ehlert          DFT functionals, gCP, sTDA/sTD-DF
   Ed Valeev, F. Pavosevic, A. Kumar             : LibInt (2-el integral package), F12 methods
   Garnet Chan, S. Sharma, J. Yang, R. Olivares  : DMRG
   Ulf Ekstrom                                   : XCFun DFT Library
   Mihaly Kallay                                 : mrcc  (arbitrary order and MRCC methods)
   Jiri Pittner, Ondrej Demel                    : Mk-CCSD
   Frank Weinhold                                : gennbo (NPA and NBO analysis)
   Christopher J. Cramer and Donald G. Truhlar   : smd solvation model
   Lars Goerigk                                  : TD-DFT with DH, B97 family of functionals
   V. Asgeirsson, H. Jonsson                     : NEB implementation
   FAccTs GmbH                                   : IRC, NEB, NEB-TS, DLPNO-Multilevel, CI-OPT
                                                   MM, QMMM, 2- and 3-layer-ONIOM, Crystal-QMMM,
                                                   LR-CPCM, SF, NACMEs, symmetry and pop. for TD-DFT,
                                                   nearIR, NL-DFT gradient (VV10), updates on ESD,
                                                   ML-optimized integration grids
   S Lehtola, MJT Oliveira, MAL Marques          : LibXC Library
   Liviu Ungur et al                             : ANISO software


 Your calculation uses the libint2 library for the computation of 2-el integrals
 For citations please refer to: http://libint.valeyev.net

 Your ORCA version has been built with support for libXC version: 5.1.0
 For citations please refer to: https://tddft.org/programs/libxc/

 This ORCA versions uses:
   CBLAS   interface :  Fast vector & matrix operations
   LAPACKE interface :  Fast linear algebra routines
   SCALAPACK package :  Parallel linear algebra routines
   Shared memory     :  Shared parallel matrices
   BLAS/LAPACK       :  OpenBLAS 0.3.15  USE64BITINT DYNAMIC_ARCH NO_AFFINITY Haswell SINGLE_THREADED
        Core in use  :  Haswell
   Copyright (c) 2011-2014, The OpenBLAS Project


================================================================================

----- Orbital basis set information -----
Your calculation utilizes the basis: def2-SVP
   F. Weigend and R. Ahlrichs, Phys. Chem. Chem. Phys. 7, 3297 (2005).

================================================================================
                                        WARNINGS
                       Please study these warnings very carefully!
================================================================================


WARNING: Geometry Optimization
  ===> : Switching off AutoStart
         For restart on a previous wavefunction, please use MOREAD

INFO   : the flag for use of the SHARK integral package has been found!

================================================================================
                                       INPUT FILE
================================================================================
NAME = neg20_neg55.inp
|  1> # avogadro generated ORCA input file 
|  2> # Basic Mode
|  3> # 
|  4> ! RHF OPT FREQ def2-SVP 
|  5> 
|  6> * xyz 0 1
|  7>    C       -1.05985        3.11466       -1.82690
|  8>    C        0.16770        3.00368       -0.96286
|  9>    C        1.15297        1.74552        0.96378
| 10>    C        1.35597        2.94563        1.88394
| 11>    C        2.59440        1.63069        0.41338
| 12>    C        3.93505        1.26295       -1.60438
| 13>    N        0.12301        1.96817       -0.05973
| 14>    N        2.66362        1.31960       -0.93185
| 15>    O        3.58542        1.65843        1.14009
| 16>    O        1.12298        3.75903       -1.08591
| 17>    H       -0.75434        1.48054        0.06851
| 18>    H        1.85186        1.58317       -1.47435
| 19>    H        4.62727        0.62922       -1.04343
| 20>    H        4.34369        2.27486       -1.67555
| 21>    H        3.78054        0.85321       -2.60557
| 22>    H        1.96353        2.66990        2.75354
| 23>    H        0.39761        3.33124        2.24865
| 24>    H        1.87897        3.76259        1.37524
| 25>    H       -1.60187        2.16554       -1.87196
| 26>    H       -0.75755        3.37859       -2.84450
| 27>    H       -1.71763        3.88905       -1.42489
| 28>    H        0.75446        0.92406        1.57383
| 29> *
| 30> 
| 31> 
| 32> 
| 33>                          ****END OF INPUT****
================================================================================

                       *****************************
                       * Geometry Optimization Run *
                       *****************************

Geometry optimization settings:
Update method            Update   .... BFGS
Choice of coordinates    CoordSys .... Z-matrix Internals
Initial Hessian          InHess   .... Almoef's Model

Convergence Tolerances:
Energy Change            TolE     ....  5.0000e-06 Eh
Max. Gradient            TolMAXG  ....  3.0000e-04 Eh/bohr
RMS Gradient             TolRMSG  ....  1.0000e-04 Eh/bohr
Max. Displacement        TolMAXD  ....  4.0000e-03 bohr
RMS Displacement         TolRMSD  ....  2.0000e-03 bohr
Strict Convergence                ....  False
------------------------------------------------------------------------------
                        ORCA OPTIMIZATION COORDINATE SETUP
------------------------------------------------------------------------------

The optimization will be done in new redundant internal coordinates
Making redundant internal coordinates   ...  (new redundants) done
Evaluating the initial hessian          ...  (Almloef) done
Evaluating the coordinates              ...  done
Calculating the B-matrix                .... done
Calculating the G-matrix                .... done
Diagonalizing the G-matrix              .... done
Small eigenvalue found = 8.910e-03
Small eigenvalue found = 2.538e-02
The first mode is                       ....   38
The number of degrees of freedom        ....   60

    -----------------------------------------------------------------
                    Redundant Internal Coordinates


    -----------------------------------------------------------------
         Definition                    Initial Value    Approx d2E/dq
    -----------------------------------------------------------------
      1. B(C   1,C   0)                  1.5052         0.409141   
      2. B(C   3,C   2)                  1.5258         0.379337   
      3. B(C   4,C   2)                  1.5472         0.350692   
      4. B(N   6,C   2)                  1.4690         0.418634   
      5. B(N   6,C   1)                  1.3747         0.591854   
      6. B(N   7,C   5)                  1.4395         0.466625   
      7. B(N   7,C   4)                  1.3825         0.575302   
      8. B(O   8,C   4)                  1.2292         1.010135   
      9. B(O   9,C   1)                  1.2240         1.029595   
     10. B(H  10,N   6)                  1.0119         0.429675   
     11. B(H  11,N   7)                  1.0113         0.430645   
     12. B(H  12,C   5)                  1.0934         0.355676   
     13. B(H  13,C   5)                  1.0936         0.355338   
     14. B(H  14,C   5)                  1.0928         0.356457   
     15. B(H  15,C   3)                  1.0961         0.352164   
     16. B(H  16,C   3)                  1.0955         0.352872   
     17. B(H  17,C   3)                  1.0953         0.353129   
     18. B(H  18,C   0)                  1.0939         0.354961   
     19. B(H  19,C   0)                  1.0939         0.355015   
     20. B(H  20,C   0)                  1.0927         0.356562   
     21. B(H  21,C   2)                  1.0981         0.349575   
     22. A(C   1,C   0,H  19)          109.0511         0.328441   
     23. A(C   1,C   0,H  18)          111.3308         0.328433   
     24. A(H  18,C   0,H  20)          109.3766         0.289735   
     25. A(C   1,C   0,H  20)          109.3897         0.328677   
     26. A(H  18,C   0,H  19)          107.9361         0.289537   
     27. A(H  19,C   0,H  20)          109.7321         0.289742   
     28. A(N   6,C   1,O   9)          123.7958         0.465717   
     29. A(C   0,C   1,O   9)          122.2256         0.438391   
     30. A(C   0,C   1,N   6)          113.9616         0.397240   
     31. A(C   3,C   2,N   6)          113.2186         0.369167   
     32. A(N   6,C   2,H  21)          104.2419         0.326874   
     33. A(C   4,C   2,H  21)          118.6997         0.319424   
     34. A(C   4,C   2,N   6)          114.6194         0.364232   
     35. A(C   3,C   2,C   4)           98.5665         0.360393   
     36. A(C   3,C   2,H  21)          107.5563         0.323555   
     37. A(H  15,C   3,H  17)          106.9435         0.288937   
     38. A(C   2,C   3,H  17)          111.7213         0.324093   
     39. A(H  15,C   3,H  16)          108.0190         0.288904   
     40. A(C   2,C   3,H  16)          111.1755         0.324054   
     41. A(C   2,C   3,H  15)          110.7529         0.323947   
     42. A(H  16,C   3,H  17)          108.0461         0.289028   
     43. A(C   2,C   4,N   7)          114.1737         0.384766   
     44. A(N   7,C   4,O   8)          122.6823         0.461693   
     45. A(C   2,C   4,O   8)          122.6232         0.424957   
     46. A(H  13,C   5,H  14)          109.8859         0.289770   
     47. A(H  12,C   5,H  14)          110.0135         0.289813   
     48. A(N   7,C   5,H  14)          108.5375         0.333867   
     49. A(H  12,C   5,H  13)          109.4588         0.289670   
     50. A(N   7,C   5,H  13)          108.9068         0.333693   
     51. A(N   7,C   5,H  12)          110.0180         0.333746   
     52. A(C   2,N   6,H  10)          116.5230         0.335340   
     53. A(C   1,N   6,H  10)          118.3213         0.355423   
     54. A(C   1,N   6,C   2)          123.3047         0.396295   
     55. A(C   5,N   7,H  11)          117.9446         0.341595   
     56. A(C   4,N   7,H  11)          115.0337         0.353853   
     57. A(C   4,N   7,C   5)          120.5113         0.401921   
     58. D(N   6,C   1,C   0,H  20)     99.1940         0.012400   
     59. D(O   9,C   1,C   0,H  19)     37.7614         0.012400   
     60. D(O   9,C   1,C   0,H  20)    -82.2520         0.012400   
     61. D(N   6,C   1,C   0,H  18)    -21.8055         0.012400   
     62. D(O   9,C   1,C   0,H  18)    156.7485         0.012400   
     63. D(N   6,C   1,C   0,H  19)   -140.7926         0.012400   
     64. D(H  17,C   3,C   2,C   4)     48.4062         0.011471   
     65. D(H  16,C   3,C   2,H  21)    -66.9512         0.011471   
     66. D(H  15,C   3,C   2,C   4)    -70.6995         0.011471   
     67. D(H  15,C   3,C   2,N   6)    167.7642         0.011471   
     68. D(H  16,C   3,C   2,N   6)     47.6625         0.011471   
     69. D(H  17,C   3,C   2,N   6)    -73.1301         0.011471   
     70. D(H  15,C   3,C   2,H  21)     53.1505         0.011471   
     71. D(H  16,C   3,C   2,C   4)    169.1988         0.011471   
     72. D(H  17,C   3,C   2,H  21)    172.2563         0.011471   
     73. D(O   8,C   4,C   2,H  21)    -67.9063         0.009290   
     74. D(O   8,C   4,C   2,N   6)    168.0796         0.009290   
     75. D(O   8,C   4,C   2,C   3)     47.5766         0.009290   
     76. D(N   7,C   4,C   2,H  21)    104.0137         0.009290   
     77. D(N   7,C   4,C   2,N   6)    -20.0004         0.009290   
     78. D(N   7,C   4,C   2,C   3)   -140.5034         0.009290   
     79. D(H  10,N   6,C   2,C   4)    140.8757         0.014944   
     80. D(H  10,N   6,C   2,C   3)   -107.1078         0.014944   
     81. D(C   1,N   6,C   2,H  21)    173.6959         0.014944   
     82. D(C   1,N   6,C   2,C   4)    -54.9051         0.014944   
     83. D(C   1,N   6,C   2,C   3)     57.1114         0.014944   
     84. D(H  10,N   6,C   1,O   9)    171.1694         0.028172   
     85. D(H  10,N   6,C   1,C   0)    -10.3026         0.028172   
     86. D(C   2,N   6,C   1,O   9)      7.2163         0.028172   
     87. D(H  10,N   6,C   2,H  21)      9.4767         0.014944   
     88. D(C   2,N   6,C   1,C   0)   -174.2557         0.028172   
     89. D(H  11,N   7,C   5,H  14)    -38.4171         0.018598   
     90. D(H  11,N   7,C   5,H  13)     81.1916         0.018598   
     91. D(C   4,N   7,C   5,H  14)    171.2862         0.018598   
     92. D(C   4,N   7,C   5,H  13)    -69.1051         0.018598   
     93. D(C   4,N   7,C   5,H  12)     50.8654         0.018598   
     94. D(H  11,N   7,C   4,O   8)   -163.1589         0.026518   
     95. D(H  11,N   7,C   5,H  12)   -158.8379         0.018598   
     96. D(H  11,N   7,C   4,C   2)     24.9265         0.026518   
     97. D(C   5,N   7,C   4,O   8)    -12.0481         0.026518   
     98. D(C   5,N   7,C   4,C   2)    176.0373         0.026518   
    -----------------------------------------------------------------

Number of atoms                         .... 22
Number of degrees of freedom            .... 98

         *************************************************************
         *                GEOMETRY OPTIMIZATION CYCLE   1            *
         *************************************************************
---------------------------------
CARTESIAN COORDINATES (ANGSTROEM)
---------------------------------
  C     -1.059850    3.114660   -1.826900
  C      0.167700    3.003680   -0.962860
  C      1.152970    1.745520    0.963780
  C      1.355970    2.945630    1.883940
  C      2.594400    1.630690    0.413380
  C      3.935050    1.262950   -1.604380
  N      0.123010    1.968170   -0.059730
  N      2.663620    1.319600   -0.931850
  O      3.585420    1.658430    1.140090
  O      1.122980    3.759030   -1.085910
  H     -0.754340    1.480540    0.068510
  H      1.851860    1.583170   -1.474350
  H      4.627270    0.629220   -1.043430
  H      4.343690    2.274860   -1.675550
  H      3.780540    0.853210   -2.605570
  H      1.963530    2.669900    2.753540
  H      0.397610    3.331240    2.248650
  H      1.878970    3.762590    1.375240
  H     -1.601870    2.165540   -1.871960
  H     -0.757550    3.378590   -2.844500
  H     -1.717630    3.889050   -1.424890
  H      0.754460    0.924060    1.573830

----------------------------
CARTESIAN COORDINATES (A.U.)
----------------------------
  NO LB      ZA    FRAG     MASS         X           Y           Z
   0 C     6.0000    0    12.011   -2.002826    5.885854   -3.452341
   1 C     6.0000    0    12.011    0.316907    5.676133   -1.819542
   2 C     6.0000    0    12.011    2.178798    3.298555    1.821280
   3 C     6.0000    0    12.011    2.562412    5.566434    3.560131
   4 C     6.0000    0    12.011    4.902705    3.081558    0.781175
   5 C     6.0000    0    12.011    7.436167    2.386630   -3.031839
   6 N     7.0000    0    14.007    0.232455    3.719302   -0.112873
   7 N     7.0000    0    14.007    5.033512    2.493683   -1.760941
   8 O     8.0000    0    15.999    6.775462    3.133979    2.154458
   9 O     8.0000    0    15.999    2.122125    7.103537   -2.052073
  10 H     1.0000    0     1.008   -1.425496    2.797815    0.129465
  11 H     1.0000    0     1.008    3.499508    2.991758   -2.786118
  12 H     1.0000    0     1.008    8.744273    1.189053   -1.971797
  13 H     1.0000    0     1.008    8.208385    4.298862   -3.166331
  14 H     1.0000    0     1.008    7.144185    1.612333   -4.923814
  15 H     1.0000    0     1.008    3.710534    5.045380    5.203436
  16 H     1.0000    0     1.008    0.751374    6.295131    4.249333
  17 H     1.0000    0     1.008    3.550739    7.110265    2.598827
  18 H     1.0000    0     1.008   -3.027096    4.092278   -3.537492
  19 H     1.0000    0     1.008   -1.431562    6.384610   -5.375326
  20 H     1.0000    0     1.008   -3.245850    7.349239   -2.692652
  21 H     1.0000    0     1.008    1.425723    1.746220    2.974108

--------------------------------
INTERNAL COORDINATES (ANGSTROEM)
--------------------------------
 C      0   0   0     0.000000000000     0.00000000     0.00000000
 C      1   0   0     1.505244393612     0.00000000     0.00000000
 C      2   1   0     2.503131088876   143.11828289     0.00000000
 C      3   2   1     1.525833358431    96.96121088   239.79326179
 C      3   2   1     1.547206041159    97.48119865   140.15743852
 C      5   3   2     2.450291931118   144.47026868   321.19173233
 N      2   1   3     1.374744322811   113.96155494     4.69186001
 N      5   3   2     1.382465966814   114.17368919   317.74115285
 O      5   3   2     1.229226412058   122.62322077   145.82113123
 O      2   1   3     1.224032190508   122.22564861   183.24587780
 H      7   2   1     1.011914787420   118.32134990   349.69744595
 H      8   5   3     1.011300990062   115.03370243    24.92650103
 H      6   5   3     1.093365055139    90.62471491   220.56143034
 H      6   5   3     1.093624097485    96.84393988   110.87648935
 H      6   5   3     1.092767872789   137.17039730   341.57371025
 H      4   3   2     1.096065849527   110.75286683   190.61327068
 H      4   3   2     1.095519212885   111.17553814    70.51156942
 H      4   3   2     1.095321108899   111.72125607   309.71901636
 H      1   2   3     1.093912637462   111.33082793   333.50263244
 H      1   2   3     1.093871150959   109.05107482   214.51555102
 H      1   2   3     1.092687714125   109.38969235    94.50215736
 H      3   2   1     1.098074566776   131.35935230     0.61399841

---------------------------
INTERNAL COORDINATES (A.U.)
---------------------------
 C      0   0   0     0.000000000000     0.00000000     0.00000000
 C      1   0   0     2.844499668547     0.00000000     0.00000000
 C      2   1   0     4.730232235281   143.11828289     0.00000000
 C      3   2   1     2.883407173435    96.96121088   239.79326179
 C      3   2   1     2.923795690540    97.48119865   140.15743852
 C      5   3   2     4.630380697969   144.47026868   321.19173233
 N      2   1   3     2.597890274275   113.96155494     4.69186001
 N      5   3   2     2.612482066746   114.17368919   317.74115285
 O      5   3   2     2.322901275371   122.62322077   145.82113123
 O      2   1   3     2.313085619164   122.22564861   183.24587780
 H      7   2   1     1.912241819090   118.32134990   349.69744595
 H      8   5   3     1.911081910180   115.03370243    24.92650103
 H      6   5   3     2.066160518613    90.62471491   220.56143034
 H      6   5   3     2.066650037704    96.84393988   110.87648935
 H      6   5   3     2.065032007519   137.17039730   341.57371025
 H      4   3   2     2.071264280350   110.75286683   190.61327068
 H      4   3   2     2.070231286801   111.17553814    70.51156942
 H      4   3   2     2.069856924522   111.72125607   309.71901636
 H      1   2   3     2.067195299239   111.33082793   333.50263244
 H      1   2   3     2.067116901109   109.05107482   214.51555102
 H      1   2   3     2.064880529597   109.38969235    94.50215736
 H      3   2   1     2.075060205831   131.35935230     0.61399841

---------------------
BASIS SET INFORMATION
---------------------
There are 4 groups of distinct atoms

 Group   1 Type C   : 7s4p1d contracted to 3s2p1d pattern {511/31/1}
 Group   2 Type N   : 7s4p1d contracted to 3s2p1d pattern {511/31/1}
 Group   3 Type O   : 7s4p1d contracted to 3s2p1d pattern {511/31/1}
 Group   4 Type H   : 4s1p contracted to 2s1p pattern {31/1}

Atom   0C    basis set group =>   1
Atom   1C    basis set group =>   1
Atom   2C    basis set group =>   1
Atom   3C    basis set group =>   1
Atom   4C    basis set group =>   1
Atom   5C    basis set group =>   1
Atom   6N    basis set group =>   2
Atom   7N    basis set group =>   2
Atom   8O    basis set group =>   3
Atom   9O    basis set group =>   3
Atom  10H    basis set group =>   4
Atom  11H    basis set group =>   4
Atom  12H    basis set group =>   4
Atom  13H    basis set group =>   4
Atom  14H    basis set group =>   4
Atom  15H    basis set group =>   4
Atom  16H    basis set group =>   4
Atom  17H    basis set group =>   4
Atom  18H    basis set group =>   4
Atom  19H    basis set group =>   4
Atom  20H    basis set group =>   4
Atom  21H    basis set group =>   4
------------------------------------------------------------------------------
                           ORCA GTO INTEGRAL CALCULATION
------------------------------------------------------------------------------
------------------------------------------------------------------------------
                   ___                                                        
                  /   \      - P O W E R E D   B Y -                         
                 /     \                                                     
                 |  |  |   _    _      __       _____    __    __             
                 |  |  |  | |  | |    /  \     |  _  \  |  |  /  |          
                  \  \/   | |  | |   /    \    | | | |  |  | /  /          
                 / \  \   | |__| |  /  /\  \   | |_| |  |  |/  /          
                |  |  |   |  __  | /  /__\  \  |    /   |      \           
                |  |  |   | |  | | |   __   |  |    \   |  |\   \          
                \     /   | |  | | |  |  |  |  | |\  \  |  | \   \       
                 \___/    |_|  |_| |__|  |__|  |_| \__\ |__|  \__/        
                                                                              
                      - O R C A' S   B I G   F R I E N D -                    
                                      &                                       
                       - I N T E G R A L  F E E D E R -                       
                                                                              
 v1 FN, 2020, v2 2021                                                         
------------------------------------------------------------------------------


Reading SHARK input file neg20_neg55.SHARKINP.tmp ... ok
----------------------
SHARK INTEGRAL PACKAGE
----------------------

Number of atoms                             ...     22
Number of basis functions                   ...    200
Number of shells                            ...     96
Maximum angular momentum                    ...      2
Integral batch strategy                     ... SHARK/LIBINT Hybrid
RI-J (if used) integral strategy            ... SPLIT-RIJ (Revised 2003 algorithm where possible)
Printlevel                                  ...      1
Contraction scheme used                     ... SEGMENTED contraction
Coulomb Range Separation                    ... NOT USED
Exchange Range Separation                   ... NOT USED
Finite Nucleus Model                        ... NOT USED
Auxiliary Coulomb fitting basis             ... NOT available
Auxiliary J/K fitting basis                 ... NOT available
Auxiliary Correlation fitting basis         ... NOT available
Auxiliary 'external' fitting basis          ... NOT available
Integral threshold                          ...     2.500000e-11
Primitive cut-off                           ...     2.500000e-12
Primitive pair pre-selection threshold      ...     2.500000e-12

Calculating pre-screening integrals         ... done (  0.1 sec) Dimension = 96
Organizing shell pair data                  ... done (  0.1 sec)
Shell pair information
Total number of shell pairs                 ...      4656
Shell pairs after pre-screening             ...      4269
Total number of primitive shell pairs       ...     16456
Primitive shell pairs kept                  ...     10666
          la=0 lb=0:   1372 shell pairs
          la=1 lb=0:   1584 shell pairs
          la=1 lb=1:    476 shell pairs
          la=2 lb=0:    496 shell pairs
          la=2 lb=1:    289 shell pairs
          la=2 lb=2:     52 shell pairs

Calculating one electron integrals          ... done (  0.0 sec)
Calculating Nuclear repulsion               ... done (  0.0 sec) ENN=    572.866249701607 Eh

SHARK setup successfully completed in   0.4 seconds

Maximum memory used throughout the entire GTOINT-calculation: 27.2 MB
-------------------------------------------------------------------------------
                                 ORCA SCF
-------------------------------------------------------------------------------

------------
SCF SETTINGS
------------
Hamiltonian:
 Ab initio Hamiltonian  Method          .... Hartree-Fock(GTOs)


General Settings:
 Integral files         IntName         .... neg20_neg55
 Hartree-Fock type      HFTyp           .... RHF
 Total Charge           Charge          ....    0
 Multiplicity           Mult            ....    1
 Number of Electrons    NEL             ....   78
 Basis Dimension        Dim             ....  200
 Nuclear Repulsion      ENuc            ....    572.8662497016 Eh

Convergence Acceleration:
 DIIS                   CNVDIIS         .... on
   Start iteration      DIISMaxIt       ....    12
   Startup error        DIISStart       ....  0.200000
   # of expansion vecs  DIISMaxEq       ....     5
   Bias factor          DIISBfac        ....   1.050
   Max. coefficient     DIISMaxC        ....  10.000
 Trust-Rad. Augm. Hess. CNVTRAH         .... auto
   Auto Start mean grad. ratio tolernc. ....  1.125000
   Auto Start start iteration           ....    20
   Auto Start num. interpolation iter.  ....    10
   Max. Number of Micro iterations      ....    16
   Max. Number of Macro iterations      .... Maxiter - #DIIS iter
   Number of Davidson start vectors     ....     2
   Converg. threshold I  (grad. norm)   ....   1.000e-05
   Converg. threshold II (energy diff.) ....   1.000e-08
   Grad. Scal. Fac. for Micro threshold ....   0.100
   Minimum threshold for Micro iter.    ....   0.010
   NR start threshold (gradient norm)   ....   0.001
   Initial trust radius                 ....   0.400
   Minimum AH scaling param. (alpha)    ....   1.000
   Maximum AH scaling param. (alpha)    .... 1000.000
   Orbital update algorithm             .... Taylor
   White noise on init. David. guess    .... on
   Maximum white noise                  ....   0.010
   Quad. conv. algorithm                .... NR
 SOSCF                  CNVSOSCF        .... on
   Start iteration      SOSCFMaxIt      ....   150
   Startup grad/error   SOSCFStart      ....  0.003300
 Level Shifting         CNVShift        .... on
   Level shift para.    LevelShift      ....    0.2500
   Turn off err/grad.   ShiftErr        ....    0.0010
 Zerner damping         CNVZerner       .... off
 Static damping         CNVDamp         .... on
   Fraction old density DampFac         ....    0.7000
   Max. Damping (<1)    DampMax         ....    0.9800
   Min. Damping (>=0)   DampMin         ....    0.0000
   Turn off err/grad.   DampErr         ....    0.1000
 Fernandez-Rico         CNVRico         .... off

SCF Procedure:
 Maximum # iterations   MaxIter         ....   125
 SCF integral mode      SCFMode         .... Direct
   Integral package                     .... SHARK and LIBINT hybrid scheme
 Reset frequency        DirectResetFreq ....    20
 Integral Threshold     Thresh          ....  2.500e-11 Eh
 Primitive CutOff       TCut            ....  2.500e-12 Eh

Convergence Tolerance:
 Convergence Check Mode ConvCheckMode   .... Total+1el-Energy
 Convergence forced     ConvForced      .... 0
 Energy Change          TolE            ....  1.000e-08 Eh
 1-El. energy change                    ....  1.000e-05 Eh
 Orbital Gradient       TolG            ....  1.000e-05
 Orbital Rotation angle TolX            ....  1.000e-05
 DIIS Error             TolErr          ....  5.000e-07


Diagonalization of the overlap matrix:
Smallest eigenvalue                        ... 1.096e-03
Time for diagonalization                   ...    0.008 sec
Threshold for overlap eigenvalues          ... 1.000e-08
Number of eigenvalues below threshold      ... 0
Time for construction of square roots      ...    0.006 sec
Total time needed                          ...    0.014 sec

Time for model grid setup =    0.481 sec

------------------------------
INITIAL GUESS: MODEL POTENTIAL
------------------------------
Loading Hartree-Fock densities                     ... done
Calculating cut-offs                               ... done
Initializing the effective Hamiltonian             ... done
Setting up the integral package (SHARK)            ... done
Starting the Coulomb interaction                   ... done (   0.3 sec)
Reading the grid                                   ... done
Mapping shells                                     ... done
Starting the XC term evaluation                    ... done (   0.3 sec)
Transforming the Hamiltonian                       ... done (   0.0 sec)
Diagonalizing the Hamiltonian                      ... done (   0.0 sec)
Back transforming the eigenvectors                 ... done (   0.0 sec)
Now organizing SCF variables                       ... done
                      ------------------
                      INITIAL GUESS DONE (   1.1 sec)
                      ------------------
--------------
SCF ITERATIONS
--------------
ITER       Energy         Delta-E        Max-DP      RMS-DP      [F,P]     Damp
               ***  Starting incremental Fock matrix formation  ***
  0   -492.0332910361   0.000000000000 0.06663359  0.00208027  0.2587668 0.7000
  1   -492.1862252996  -0.152934263528 0.04855035  0.00154930  0.1572322 0.7000
                               ***Turning on DIIS***
  2   -492.2770414035  -0.090816103823 0.09264865  0.00327806  0.0882236 0.0000
  3   -491.7484027865   0.528638616962 0.03473921  0.00104341  0.0508501 0.0000
  4   -492.4811319632  -0.732729176691 0.00943682  0.00034806  0.0088717 0.0000
  5   -492.4677894336   0.013342529624 0.00485328  0.00017987  0.0053834 0.0000
                      *** Initiating the SOSCF procedure ***
                           *** Shutting down DIIS ***
                      *** Re-Reading the Fockian *** 
                      *** Removing any level shift *** 
ITER      Energy       Delta-E        Grad      Rot      Max-DP    RMS-DP
  6   -492.46584032   0.0019491086  0.001909  0.001909  0.002877  0.000102
               *** Restarting incremental Fock matrix formation ***
  7   -492.46556781   0.0002725193  0.000756  0.001350  0.001447  0.000051
  8   -492.46558666  -0.0000188523  0.000382  0.001534  0.001448  0.000054
  9   -492.46559394  -0.0000072868  0.000086  0.000080  0.000476  0.000009
 10   -492.46559427  -0.0000003252  0.000040  0.000039  0.000108  0.000004
 11   -492.46559439  -0.0000001206  0.000011  0.000016  0.000040  0.000001
 12   -492.46559440  -0.0000000092  0.000003  0.000008  0.000026  0.000001
                  ***Gradient check signals convergence***
              ***Rediagonalizing the Fockian in SOSCF/NRSCF***

               *****************************************************
               *                     SUCCESS                       *
               *           SCF CONVERGED AFTER  13 CYCLES          *
               *****************************************************


----------------
TOTAL SCF ENERGY
----------------

Total Energy       :         -492.46559440 Eh          -13400.67010 eV

Components:
Nuclear Repulsion  :          572.86624970 Eh           15588.48316 eV
Electronic Energy  :        -1065.33184410 Eh          -28989.15326 eV
One Electron Energy:        -1808.47430536 Eh          -49211.08769 eV
Two Electron Energy:          743.14246126 Eh           20221.93443 eV

Virial components:
Potential Energy   :         -982.60871092 Eh          -26738.14236 eV
Kinetic Energy     :          490.14311652 Eh           13337.47226 eV
Virial Ratio       :            2.00473837


---------------
SCF CONVERGENCE
---------------

  Last Energy change         ...   -2.2092e-09  Tolerance :   1.0000e-08
  Last MAX-Density change    ...    3.8750e-06  Tolerance :   1.0000e-07
  Last RMS-Density change    ...    1.3161e-07  Tolerance :   5.0000e-09
  Last Orbital Gradient      ...    1.0991e-06  Tolerance :   1.0000e-05
  Last Orbital Rotation      ...    1.2459e-06  Tolerance :   1.0000e-05

             **** THE GBW FILE WAS UPDATED (neg20_neg55.gbw) ****
             **** DENSITY neg20_neg55.scfp WAS UPDATED ****
             **** ENERGY FILE WAS UPDATED (neg20_neg55.en.tmp) ****
             **** THE GBW FILE WAS UPDATED (neg20_neg55.gbw) ****
             **** DENSITY neg20_neg55.scfp WAS UPDATED ****
----------------
ORBITAL ENERGIES
----------------

  NO   OCC          E(Eh)            E(eV) 
   0   2.0000     -20.531159      -558.6812 
   1   2.0000     -20.509129      -558.0818 
   2   2.0000     -15.606403      -424.6718 
   3   2.0000     -15.567837      -423.6224 
   4   2.0000     -11.371499      -309.4342 
   5   2.0000     -11.349620      -308.8389 
   6   2.0000     -11.293179      -307.3030 
   7   2.0000     -11.257658      -306.3365 
   8   2.0000     -11.253061      -306.2114 
   9   2.0000     -11.217876      -305.2539 
  10   2.0000      -1.383588       -37.6493 
  11   2.0000      -1.353255       -36.8239 
  12   2.0000      -1.239587       -33.7309 
  13   2.0000      -1.198752       -32.6197 
  14   2.0000      -1.053326       -28.6624 
  15   2.0000      -0.992592       -27.0098 
  16   2.0000      -0.935760       -25.4633 
  17   2.0000      -0.864179       -23.5155 
  18   2.0000      -0.804510       -21.8918 
  19   2.0000      -0.762811       -20.7571 
  20   2.0000      -0.716619       -19.5002 
  21   2.0000      -0.707788       -19.2599 
  22   2.0000      -0.655360       -17.8333 
  23   2.0000      -0.640698       -17.4343 
  24   2.0000      -0.623800       -16.9744 
  25   2.0000      -0.615422       -16.7465 
  26   2.0000      -0.605202       -16.4684 
  27   2.0000      -0.593675       -16.1547 
  28   2.0000      -0.576757       -15.6944 
  29   2.0000      -0.563715       -15.3395 
  30   2.0000      -0.542461       -14.7611 
  31   2.0000      -0.529486       -14.4081 
  32   2.0000      -0.520613       -14.1666 
  33   2.0000      -0.517844       -14.0913 
  34   2.0000      -0.487666       -13.2701 
  35   2.0000      -0.443313       -12.0632 
  36   2.0000      -0.434642       -11.8272 
  37   2.0000      -0.397279       -10.8105 
  38   2.0000      -0.376594       -10.2476 
  39   0.0000       0.141432         3.8486 
  40   0.0000       0.162879         4.4322 
  41   0.0000       0.170997         4.6531 
  42   0.0000       0.197211         5.3664 
  43   0.0000       0.209263         5.6943 
  44   0.0000       0.225345         6.1319 
  45   0.0000       0.236158         6.4262 
  46   0.0000       0.250683         6.8214 
  47   0.0000       0.254738         6.9318 
  48   0.0000       0.258682         7.0391 
  49   0.0000       0.280174         7.6239 
  50   0.0000       0.283272         7.7082 
  51   0.0000       0.296265         8.0618 
  52   0.0000       0.303300         8.2532 
  53   0.0000       0.351947         9.5770 
  54   0.0000       0.374458        10.1895 
  55   0.0000       0.389014        10.5856 
  56   0.0000       0.413835        11.2610 
  57   0.0000       0.438323        11.9274 
  58   0.0000       0.444805        12.1038 
  59   0.0000       0.492127        13.3915 
  60   0.0000       0.525284        14.2937 
  61   0.0000       0.566870        15.4253 
  62   0.0000       0.602779        16.4024 
  63   0.0000       0.631131        17.1740 
  64   0.0000       0.639563        17.4034 
  65   0.0000       0.648184        17.6380 
  66   0.0000       0.656016        17.8511 
  67   0.0000       0.669048        18.2057 
  68   0.0000       0.678314        18.4579 
  69   0.0000       0.716657        19.5012 
  70   0.0000       0.721149        19.6235 
  71   0.0000       0.760035        20.6816 
  72   0.0000       0.795688        21.6518 
  73   0.0000       0.813968        22.1492 
  74   0.0000       0.833895        22.6914 
  75   0.0000       0.840583        22.8734 
  76   0.0000       0.844455        22.9788 
  77   0.0000       0.856640        23.3103 
  78   0.0000       0.862685        23.4749 
  79   0.0000       0.876597        23.8534 
  80   0.0000       0.885551        24.0971 
  81   0.0000       0.888727        24.1835 
  82   0.0000       0.892115        24.2757 
  83   0.0000       0.898169        24.4404 
  84   0.0000       0.902762        24.5654 
  85   0.0000       0.913092        24.8465 
  86   0.0000       0.921376        25.0719 
  87   0.0000       0.927566        25.2403 
  88   0.0000       0.946974        25.7685 
  89   0.0000       0.952632        25.9224 
  90   0.0000       0.964307        26.2401 
  91   0.0000       0.969358        26.3776 
  92   0.0000       0.991330        26.9755 
  93   0.0000       1.023362        27.8471 
  94   0.0000       1.071081        29.1456 
  95   0.0000       1.080071        29.3902 
  96   0.0000       1.097498        29.8644 
  97   0.0000       1.124245        30.5923 
  98   0.0000       1.148471        31.2515 
  99   0.0000       1.166082        31.7307 
 100   0.0000       1.215261        33.0689 
 101   0.0000       1.238760        33.7084 
 102   0.0000       1.278411        34.7873 
 103   0.0000       1.295780        35.2600 
 104   0.0000       1.324862        36.0513 
 105   0.0000       1.357725        36.9456 
 106   0.0000       1.391972        37.8775 
 107   0.0000       1.413056        38.4512 
 108   0.0000       1.433640        39.0113 
 109   0.0000       1.455813        39.6147 
 110   0.0000       1.477307        40.1996 
 111   0.0000       1.530838        41.6562 
 112   0.0000       1.543299        41.9953 
 113   0.0000       1.574960        42.8568 
 114   0.0000       1.614582        43.9350 
 115   0.0000       1.653611        44.9970 
 116   0.0000       1.670354        45.4526 
 117   0.0000       1.693589        46.0849 
 118   0.0000       1.700075        46.2614 
 119   0.0000       1.729141        47.0523 
 120   0.0000       1.760385        47.9025 
 121   0.0000       1.786494        48.6130 
 122   0.0000       1.806151        49.1479 
 123   0.0000       1.838757        50.0351 
 124   0.0000       1.847120        50.2627 
 125   0.0000       1.863295        50.7028 
 126   0.0000       1.919768        52.2395 
 127   0.0000       1.947984        53.0073 
 128   0.0000       1.961251        53.3684 
 129   0.0000       1.986269        54.0491 
 130   0.0000       2.029740        55.2320 
 131   0.0000       2.036374        55.4126 
 132   0.0000       2.045189        55.6524 
 133   0.0000       2.048773        55.7500 
 134   0.0000       2.063113        56.1402 
 135   0.0000       2.076921        56.5159 
 136   0.0000       2.084822        56.7309 
 137   0.0000       2.093636        56.9707 
 138   0.0000       2.111707        57.4625 
 139   0.0000       2.128172        57.9105 
 140   0.0000       2.153808        58.6081 
 141   0.0000       2.168203        58.9998 
 142   0.0000       2.186632        59.5013 
 143   0.0000       2.192568        59.6628 
 144   0.0000       2.230625        60.6984 
 145   0.0000       2.244112        61.0654 
 146   0.0000       2.253926        61.3325 
 147   0.0000       2.280592        62.0581 
 148   0.0000       2.302616        62.6574 
 149   0.0000       2.344965        63.8098 
 150   0.0000       2.361562        64.2614 
 151   0.0000       2.388840        65.0036 
 152   0.0000       2.402175        65.3665 
 153   0.0000       2.411430        65.6183 
 154   0.0000       2.444706        66.5238 
 155   0.0000       2.459367        66.9228 
 156   0.0000       2.499026        68.0020 
 157   0.0000       2.539114        69.0928 
 158   0.0000       2.566721        69.8440 
 159   0.0000       2.630148        71.5700 
 160   0.0000       2.658811        72.3499 
 161   0.0000       2.698412        73.4275 
 162   0.0000       2.716281        73.9138 
 163   0.0000       2.734503        74.4096 
 164   0.0000       2.760640        75.1208 
 165   0.0000       2.764760        75.2329 
 166   0.0000       2.779073        75.6224 
 167   0.0000       2.821598        76.7796 
 168   0.0000       2.888744        78.6067 
 169   0.0000       2.914810        79.3160 
 170   0.0000       2.941221        80.0347 
 171   0.0000       2.971060        80.8467 
 172   0.0000       2.982422        81.1558 
 173   0.0000       2.995767        81.5190 
 174   0.0000       3.035879        82.6105 
 175   0.0000       3.063767        83.3693 
 176   0.0000       3.098801        84.3227 
 177   0.0000       3.109578        84.6159 
 178   0.0000       3.144529        85.5670 
 179   0.0000       3.161152        86.0193 
 180   0.0000       3.196462        86.9801 
 181   0.0000       3.214941        87.4830 
 182   0.0000       3.237760        88.1039 
 183   0.0000       3.257750        88.6479 
 184   0.0000       3.281172        89.2852 
 185   0.0000       3.298543        89.7579 
 186   0.0000       3.329988        90.6136 
 187   0.0000       3.353200        91.2452 
 188   0.0000       3.354123        91.2703 
 189   0.0000       3.388301        92.2004 
 190   0.0000       3.481173        94.7275 
 191   0.0000       3.548446        96.5581 
 192   0.0000       3.566836        97.0585 
 193   0.0000       3.574496        97.2670 
 194   0.0000       3.614412        98.3532 
 195   0.0000       3.691319       100.4459 
 196   0.0000       3.913699       106.4972 
 197   0.0000       3.941637       107.2574 
 198   0.0000       4.073593       110.8481 
 199   0.0000       4.082923       111.1020 

                    ********************************
                    * MULLIKEN POPULATION ANALYSIS *
                    ********************************

-----------------------
MULLIKEN ATOMIC CHARGES
-----------------------
   0 C :   -0.018492
   1 C :    0.327465
   2 C :    0.049823
   3 C :   -0.003459
   4 C :    0.447076
   5 C :    0.162922
   6 N :   -0.484806
   7 N :   -0.445082
   8 O :   -0.453522
   9 O :   -0.449321
  10 H :    0.165634
  11 H :    0.164425
  12 H :    0.055910
  13 H :    0.040484
  14 H :    0.025987
  15 H :    0.069403
  16 H :    0.014600
  17 H :    0.068873
  18 H :    0.036538
  19 H :    0.073295
  20 H :    0.079739
  21 H :    0.072509
Sum of atomic charges:   -0.0000000

--------------------------------
MULLIKEN REDUCED ORBITAL CHARGES
--------------------------------
  0 C s       :     3.017372  s :     3.017372
      pz      :     1.006884  p :     2.967537
      px      :     0.941706
      py      :     1.018947
      dz2     :     0.007093  d :     0.033583
      dxz     :     0.009738
      dyz     :     0.003198
      dx2y2   :     0.005356
      dxy     :     0.008199
  1 C s       :     3.072505  s :     3.072505
      pz      :     0.788131  p :     2.461487
      px      :     0.921259
      py      :     0.752097
      dz2     :     0.018364  d :     0.138543
      dxz     :     0.029287
      dyz     :     0.025081
      dx2y2   :     0.043454
      dxy     :     0.022358
  2 C s       :     3.101022  s :     3.101022
      pz      :     0.854961  p :     2.784523
      px      :     0.855286
      py      :     1.074276
      dz2     :     0.008738  d :     0.064632
      dxz     :     0.019822
      dyz     :     0.013409
      dx2y2   :     0.014569
      dxy     :     0.008094
  3 C s       :     3.037376  s :     3.037376
      pz      :     0.961966  p :     2.928536
      px      :     1.006300
      py      :     0.960270
      dz2     :     0.003751  d :     0.037547
      dxz     :     0.008546
      dyz     :     0.010931
      dx2y2   :     0.006874
      dxy     :     0.007445
  4 C s       :     3.025523  s :     3.025523
      pz      :     0.806901  p :     2.393336
      px      :     0.912172
      py      :     0.674263
      dz2     :     0.043663  d :     0.134066
      dxz     :     0.028817
      dyz     :     0.024485
      dx2y2   :     0.020005
      dxy     :     0.017097
  5 C s       :     2.999525  s :     2.999525
      pz      :     0.945275  p :     2.784983
      px      :     0.815982
      py      :     1.023726
      dz2     :     0.008840  d :     0.052570
      dxz     :     0.012645
      dyz     :     0.006593
      dx2y2   :     0.011635
      dxy     :     0.012858
  6 N s       :     3.443478  s :     3.443478
      pz      :     1.400518  p :     4.018403
      px      :     1.215812
      py      :     1.402073
      dz2     :     0.004141  d :     0.022925
      dxz     :     0.004767
      dyz     :     0.005193
      dx2y2   :     0.005117
      dxy     :     0.003708
  7 N s       :     3.429254  s :     3.429254
      pz      :     1.129396  p :     3.990910
      px      :     1.161666
      py      :     1.699847
      dz2     :     0.007001  d :     0.024918
      dxz     :     0.007505
      dyz     :     0.004153
      dx2y2   :     0.003552
      dxy     :     0.002707
  8 O s       :     3.795996  s :     3.795996
      pz      :     1.647249  p :     4.637760
      px      :     1.491935
      py      :     1.498576
      dz2     :     0.002528  d :     0.019766
      dxz     :     0.007124
      dyz     :     0.002171
      dx2y2   :     0.003795
      dxy     :     0.004149
  9 O s       :     3.801120  s :     3.801120
      pz      :     1.676099  p :     4.628111
      px      :     1.460279
      py      :     1.491734
      dz2     :     0.002507  d :     0.020089
      dxz     :     0.003196
      dyz     :     0.001907
      dx2y2   :     0.005225
      dxy     :     0.007254
 10 H s       :     0.788825  s :     0.788825
      pz      :     0.007086  p :     0.045541
      px      :     0.024025
      py      :     0.014430
 11 H s       :     0.788579  s :     0.788579
      pz      :     0.011881  p :     0.046996
      px      :     0.021648
      py      :     0.013467
 12 H s       :     0.918948  s :     0.918948
      pz      :     0.007928  p :     0.025141
      px      :     0.008446
      py      :     0.008767
 13 H s       :     0.934940  s :     0.934940
      pz      :     0.003543  p :     0.024576
      px      :     0.004349
      py      :     0.016684
 14 H s       :     0.949276  s :     0.949276
      pz      :     0.015715  p :     0.024737
      px      :     0.002643
      py      :     0.006379
 15 H s       :     0.904815  s :     0.904815
      pz      :     0.012370  p :     0.025782
      px      :     0.009212
      py      :     0.004201
 16 H s       :     0.960653  s :     0.960653
      pz      :     0.005290  p :     0.024747
      px      :     0.014087
      py      :     0.005370
 17 H s       :     0.904967  s :     0.904967
      pz      :     0.007041  p :     0.026160
      px      :     0.007298
      py      :     0.011821
 18 H s       :     0.937668  s :     0.937668
      pz      :     0.003844  p :     0.025794
      px      :     0.007340
      py      :     0.014610
 19 H s       :     0.900590  s :     0.900590
      pz      :     0.016551  p :     0.026114
      px      :     0.004724
      py      :     0.004840
 20 H s       :     0.893552  s :     0.893552
      pz      :     0.005804  p :     0.026710
      px      :     0.009279
      py      :     0.011626
 21 H s       :     0.903867  s :     0.903867
      pz      :     0.008053  p :     0.023623
      px      :     0.003841
      py      :     0.011729


                     *******************************
                     * LOEWDIN POPULATION ANALYSIS *
                     *******************************

----------------------
LOEWDIN ATOMIC CHARGES
----------------------
   0 C :   -0.049572
   1 C :    0.162978
   2 C :    0.040026
   3 C :   -0.032493
   4 C :    0.193323
   5 C :    0.068854
   6 N :   -0.094069
   7 N :   -0.091821
   8 O :   -0.312339
   9 O :   -0.307681
  10 H :    0.082099
  11 H :    0.068063
  12 H :    0.025515
  13 H :    0.014627
  14 H :    0.013849
  15 H :    0.032157
  16 H :    0.005499
  17 H :    0.031968
  18 H :    0.021841
  19 H :    0.043796
  20 H :    0.046550
  21 H :    0.036830

-------------------------------
LOEWDIN REDUCED ORBITAL CHARGES
-------------------------------
  0 C s       :     2.836891  s :     2.836891
      pz      :     1.050774  p :     3.134529
      px      :     1.027067
      py      :     1.056688
      dz2     :     0.017024  d :     0.078153
      dxz     :     0.021999
      dyz     :     0.006937
      dx2y2   :     0.012254
      dxy     :     0.019939
  1 C s       :     2.841908  s :     2.841908
      pz      :     0.854364  p :     2.712793
      px      :     0.992277
      py      :     0.866151
      dz2     :     0.036947  d :     0.282322
      dxz     :     0.056659
      dyz     :     0.053605
      dx2y2   :     0.087313
      dxy     :     0.047798
  2 C s       :     2.838659  s :     2.838659
      pz      :     0.958645  p :     2.983607
      px      :     0.953882
      py      :     1.071081
      dz2     :     0.018150  d :     0.137708
      dxz     :     0.042722
      dyz     :     0.028676
      dx2y2   :     0.031921
      dxy     :     0.016240
  3 C s       :     2.836435  s :     2.836435
      pz      :     1.034758  p :     3.112065
      px      :     1.054554
      py      :     1.022753
      dz2     :     0.008666  d :     0.083992
      dxz     :     0.019002
      dyz     :     0.024439
      dx2y2   :     0.015354
      dxy     :     0.016531
  4 C s       :     2.846062  s :     2.846062
      pz      :     0.957037  p :     2.687018
      px      :     1.025194
      py      :     0.704786
      dz2     :     0.093273  d :     0.273597
      dxz     :     0.062340
      dyz     :     0.046981
      dx2y2   :     0.040812
      dxy     :     0.030190
  5 C s       :     2.820744  s :     2.820744
      pz      :     1.011404  p :     2.994660
      px      :     0.916362
      py      :     1.066894
      dz2     :     0.019590  d :     0.115742
      dxz     :     0.027238
      dyz     :     0.014235
      dx2y2   :     0.024288
      dxy     :     0.030391
  6 N s       :     3.063213  s :     3.063213
      pz      :     1.366564  p :     3.978894
      px      :     1.224973
      py      :     1.387357
      dz2     :     0.009301  d :     0.051962
      dxz     :     0.010456
      dyz     :     0.011411
      dx2y2   :     0.010944
      dxy     :     0.009849
  7 N s       :     3.065800  s :     3.065800
      pz      :     1.167477  p :     3.971716
      px      :     1.183144
      py      :     1.621096
      dz2     :     0.016170  d :     0.054304
      dxz     :     0.018998
      dyz     :     0.007720
      dx2y2   :     0.006627
      dxy     :     0.004791
  8 O s       :     3.554715  s :     3.554715
      pz      :     1.675629  p :     4.727114
      px      :     1.565203
      py      :     1.486281
      dz2     :     0.003754  d :     0.030509
      dxz     :     0.013124
      dyz     :     0.002375
      dx2y2   :     0.006926
      dxy     :     0.004330
  9 O s       :     3.552090  s :     3.552090
      pz      :     1.660772  p :     4.724415
      px      :     1.531501
      py      :     1.532142
      dz2     :     0.004608  d :     0.031176
      dxz     :     0.004084
      dyz     :     0.002530
      dx2y2   :     0.006609
      dxy     :     0.013346
 10 H s       :     0.786753  s :     0.786753
      pz      :     0.028425  p :     0.131148
      px      :     0.060611
      py      :     0.042112
 11 H s       :     0.796316  s :     0.796316
      pz      :     0.032759  p :     0.135621
      px      :     0.057136
      py      :     0.045725
 12 H s       :     0.909381  s :     0.909381
      pz      :     0.020248  p :     0.065104
      px      :     0.022192
      py      :     0.022663
 13 H s       :     0.920537  s :     0.920537
      pz      :     0.010957  p :     0.064836
      px      :     0.014489
      py      :     0.039390
 14 H s       :     0.922771  s :     0.922771
      pz      :     0.036710  p :     0.063380
      px      :     0.009900
      py      :     0.016770
 15 H s       :     0.899974  s :     0.899974
      pz      :     0.031301  p :     0.067868
      px      :     0.022987
      py      :     0.013581
 16 H s       :     0.929158  s :     0.929158
      pz      :     0.015902  p :     0.065343
      px      :     0.033099
      py      :     0.016342
 17 H s       :     0.899713  s :     0.899713
      pz      :     0.019204  p :     0.068319
      px      :     0.019446
      py      :     0.029669
 18 H s       :     0.911628  s :     0.911628
      pz      :     0.012255  p :     0.066531
      px      :     0.020260
      py      :     0.034016
 19 H s       :     0.889147  s :     0.889147
      pz      :     0.039443  p :     0.067058
      px      :     0.013610
      py      :     0.014005
 20 H s       :     0.885140  s :     0.885140
      pz      :     0.016381  p :     0.068310
      px      :     0.023736
      py      :     0.028193
 21 H s       :     0.896333  s :     0.896333
      pz      :     0.022295  p :     0.066838
      px      :     0.013811
      py      :     0.030732


                      *****************************
                      * MAYER POPULATION ANALYSIS *
                      *****************************

  NA   - Mulliken gross atomic population
  ZA   - Total nuclear charge
  QA   - Mulliken gross atomic charge
  VA   - Mayer's total valence
  BVA  - Mayer's bonded valence
  FA   - Mayer's free valence

  ATOM       NA         ZA         QA         VA         BVA        FA
  0 C      6.0185     6.0000    -0.0185     3.8633     3.8633     0.0000
  1 C      5.6725     6.0000     0.3275     4.0590     4.0590     0.0000
  2 C      5.9502     6.0000     0.0498     3.7741     3.7741     0.0000
  3 C      6.0035     6.0000    -0.0035     3.9125     3.9125     0.0000
  4 C      5.5529     6.0000     0.4471     4.0310     4.0310     0.0000
  5 C      5.8371     6.0000     0.1629     3.8904     3.8904    -0.0000
  6 N      7.4848     7.0000    -0.4848     2.8987     2.8987    -0.0000
  7 N      7.4451     7.0000    -0.4451     3.0339     3.0339    -0.0000
  8 O      8.4535     8.0000    -0.4535     2.0248     2.0248     0.0000
  9 O      8.4493     8.0000    -0.4493     2.0113     2.0113    -0.0000
 10 H      0.8344     1.0000     0.1656     0.9728     0.9728    -0.0000
 11 H      0.8356     1.0000     0.1644     0.9821     0.9821    -0.0000
 12 H      0.9441     1.0000     0.0559     0.9939     0.9939    -0.0000
 13 H      0.9595     1.0000     0.0405     0.9818     0.9818    -0.0000
 14 H      0.9740     1.0000     0.0260     0.9829     0.9829    -0.0000
 15 H      0.9306     1.0000     0.0694     0.9923     0.9923     0.0000
 16 H      0.9854     1.0000     0.0146     0.9831     0.9831     0.0000
 17 H      0.9311     1.0000     0.0689     1.0052     1.0052    -0.0000
 18 H      0.9635     1.0000     0.0365     0.9885     0.9885    -0.0000
 19 H      0.9267     1.0000     0.0733     0.9998     0.9998     0.0000
 20 H      0.9203     1.0000     0.0797     0.9890     0.9890    -0.0000
 21 H      0.9275     1.0000     0.0725     0.9810     0.9810     0.0000

  Mayer bond orders larger than 0.100000
B(  0-C ,  1-C ) :   0.9863 B(  0-C , 18-H ) :   0.9844 B(  0-C , 19-H ) :   0.9755 
B(  0-C , 20-H ) :   0.9659 B(  1-C ,  6-N ) :   1.1120 B(  1-C ,  9-O ) :   1.9216 
B(  2-C ,  3-C ) :   1.0444 B(  2-C ,  4-C ) :   0.9312 B(  2-C ,  6-N ) :   0.8493 
B(  2-C , 21-H ) :   0.9646 B(  3-C , 15-H ) :   0.9760 B(  3-C , 16-H ) :   0.9832 
B(  3-C , 17-H ) :   0.9748 B(  4-C ,  7-N ) :   1.1840 B(  4-C ,  8-O ) :   1.9313 
B(  5-C ,  7-N ) :   0.9123 B(  5-C , 12-H ) :   0.9870 B(  5-C , 13-H ) :   0.9897 
B(  5-C , 14-H ) :   0.9924 B(  6-N , 10-H ) :   0.9436 B(  7-N , 11-H ) :   0.9407 


-------
TIMINGS
-------

Total SCF time: 0 days 0 hours 1 min 34 sec 

Total time                  ....      94.876 sec
Sum of individual times     ....      94.391 sec  ( 99.5%)

Fock matrix formation       ....      93.100 sec  ( 98.1%)
Diagonalization             ....       0.065 sec  (  0.1%)
Density matrix formation    ....       0.009 sec  (  0.0%)
Population analysis         ....       0.015 sec  (  0.0%)
Initial guess               ....       0.632 sec  (  0.7%)
Orbital Transformation      ....       0.000 sec  (  0.0%)
Orbital Orthonormalization  ....       0.000 sec  (  0.0%)
DIIS solution               ....       0.044 sec  (  0.0%)
SOSCF solution              ....       0.045 sec  (  0.0%)

Maximum memory used throughout the entire SCF-calculation: 251.2 MB

-------------------------   --------------------
FINAL SINGLE POINT ENERGY      -492.465594401990
-------------------------   --------------------

------------------------------------------------------------------------------
                         ORCA SCF GRADIENT CALCULATION
------------------------------------------------------------------------------

Gradient of the Hartree-Fock SCF energy:
Hartree-Fock type                ... RHF
Number of operators              ...    1
Number of atoms                  ...   22
Basis set dimensions             ...  200
Integral neglect threshold       ... 2.5e-11
Integral primitive cutoff        ... 2.5e-12
SHARK Integral package           ... ON

Nuc. rep. gradient       (SHARK) ... done (  0.0 sec)
HCore & Overlap gradient (SHARK) ... done (  0.5 sec)
Two-Electron gradient    (SHARK) ... done ( 28.7 sec)

------------------
CARTESIAN GRADIENT
------------------

   1   C   :    0.001664184    0.003973747    0.006835310
   2   C   :   -0.024341582   -0.019599197   -0.005828083
   3   C   :   -0.007694810   -0.036190175   -0.005699188
   4   C   :    0.014154445   -0.018875939   -0.021214104
   5   C   :   -0.038437830    0.057329275    0.010905564
   6   C   :    0.000705673   -0.006341314   -0.000953160
   7   N   :   -0.007722567   -0.010180243    0.003517408
   8   N   :    0.012438065   -0.007281114   -0.028591792
   9   O   :    0.055360096   -0.003635586    0.037087111
  10   O   :    0.042015994    0.033760298   -0.007342792
  11   H   :   -0.013131478   -0.006669604    0.004314934
  12   H   :   -0.019397106    0.008896998   -0.006632026
  13   H   :    0.002631609   -0.003046915    0.003295514
  14   H   :   -0.006262172    0.003662526    0.003827556
  15   H   :   -0.002594703   -0.000884074   -0.002604392
  16   H   :    0.003619866    0.001303944    0.006468145
  17   H   :   -0.000761530    0.000995501    0.000138107
  18   H   :    0.005538382    0.004916465   -0.001843066
  19   H   :    0.000576978   -0.003995333   -0.001092592
  20   H   :    0.001474266   -0.002957057   -0.005142280
  21   H   :   -0.001175784    0.000284363    0.002136268
  22   H   :   -0.018659996    0.004533433    0.008417555

Difference to translation invariance:
           :    0.0000000000   -0.0000000000    0.0000000000

Difference to rotation invariance:
           :   -0.0000001531   -0.0000001710   -0.0000005153

Norm of the cartesian gradient     ...    0.1359502519
RMS gradient                       ...    0.0167343192
MAX gradient                       ...    0.0573292747

-------
TIMINGS
-------

Total SCF gradient time            ...       29.300 sec

One electron gradient       ....       0.474 sec  (  1.6%)
Two electron gradient       ....      28.699 sec  ( 97.9%)

Maximum memory used throughout the entire SCFGRAD-calculation: 41.6 MB
------------------------------------------------------------------------------
                         ORCA GEOMETRY RELAXATION STEP
------------------------------------------------------------------------------

Reading the OPT-File                    .... done
Getting information on internals        .... done
Copying old internal coords+grads       .... done
Making the new internal coordinates     .... (new redundants).... done
Validating the new internal coordinates .... (new redundants).... done
Calculating the B-matrix                .... done
Calculating the G,G- and P matrices     .... done
Transforming gradient to internals      .... done
Projecting the internal gradient        .... done
Number of atoms                         ....  22
Number of internal coordinates          ....  98
Current Energy                          ....  -492.465594402 Eh
Current gradient norm                   ....     0.135950252 Eh/bohr
Maximum allowed component of the step   ....  0.300
Current trust radius                    ....  0.300
Evaluating the initial hessian          ....  (Almloef) done
Projecting the Hessian                  .... done
Forming the augmented Hessian           .... done
Diagonalizing the augmented Hessian     .... done
Last element of RFO vector              ....  0.905793488
Lowest eigenvalues of augmented Hessian:
 -0.042352422  0.010153929  0.011525404  0.012401088  0.016478692
Length of the computed step             ....  0.467788118
Warning: the length of the step is outside the trust region - taking restricted step instead
The input lambda is                     ....    -0.042352
   iter:   1  x=   -0.072161  g=    4.321802 f(x)=     0.128826
   iter:   2  x=   -0.101247  g=    1.680529 f(x)=     0.048880
   iter:   3  x=   -0.115037  g=    0.922874 f(x)=     0.012726
   iter:   4  x=   -0.116892  g=    0.735822 f(x)=     0.001365
   iter:   5  x=   -0.116919  g=    0.715200 f(x)=     0.000019
   iter:   6  x=   -0.116919  g=    0.714907 f(x)=     0.000000
   iter:   7  x=   -0.116919  g=    0.714907 f(x)=     0.000000
The output lambda is                    ....    -0.116919 (7 iterations)
The final length of the internal step   ....  0.300000000
Converting the step to cartesian space:
 Initial RMS(Int)=    0.0303045763
Transforming coordinates:
 Iter   0:  RMS(Cart)=    0.1635076604 RMS(Int)=    0.0299686233
 Iter   1:  RMS(Cart)=    0.0060061620 RMS(Int)=    0.0025739992
 Iter   2:  RMS(Cart)=    0.0005000342 RMS(Int)=    0.0001167717
 Iter   3:  RMS(Cart)=    0.0000423838 RMS(Int)=    0.0000173680
 Iter   4:  RMS(Cart)=    0.0000029162 RMS(Int)=    0.0000010357
 Iter   5:  RMS(Cart)=    0.0000003046 RMS(Int)=    0.0000000976
 Iter   6:  RMS(Cart)=    0.0000000156 RMS(Int)=    0.0000000078
done
Storing new coordinates                 .... done

                                .--------------------.
          ----------------------|Geometry convergence|-------------------------
          Item                value                   Tolerance       Converged
          ---------------------------------------------------------------------
          RMS gradient        0.0132450300            0.0001000000      NO
          MAX gradient        0.0664757010            0.0003000000      NO
          RMS step            0.0303045763            0.0020000000      NO
          MAX step            0.1197969879            0.0040000000      NO
          ........................................................
          Max(Bonds)      0.0312      Max(Angles)    6.16
          Max(Dihed)        6.86      Max(Improp)    0.00
          ---------------------------------------------------------------------

The optimization has not yet converged - more geometry cycles are needed


    ---------------------------------------------------------------------------
                         Redundant Internal Coordinates
                            (Angstroem and degrees)

        Definition                    Value    dE/dq     Step     New-Value
    ----------------------------------------------------------------------------
     1. B(C   1,C   0)                1.5052 -0.003841  0.0039    1.5091   
     2. B(C   3,C   2)                1.5258 -0.016091  0.0172    1.5430   
     3. B(C   4,C   2)                1.5472 -0.005285  0.0060    1.5532   
     4. B(N   6,C   2)                1.4690  0.001446 -0.0014    1.4676   
     5. B(N   6,C   1)                1.3747  0.016149 -0.0121    1.3627   
     6. B(N   7,C   5)                1.4395 -0.006281  0.0057    1.4452   
     7. B(N   7,C   4)                1.3825  0.031305 -0.0239    1.3585   
     8. B(O   8,C   4)                1.2292  0.066476 -0.0312    1.1980   
     9. B(O   9,C   1)                1.2240  0.054362 -0.0251    1.1989   
    10. B(H  10,N   6)                1.0119  0.015146 -0.0147    0.9973   
    11. B(H  11,N   7)                1.0113  0.021446 -0.0207    0.9906   
    12. B(H  12,C   5)                1.0934  0.005123 -0.0057    1.0876   
    13. B(H  13,C   5)                1.0936  0.000800 -0.0009    1.0927   
    14. B(H  14,C   5)                1.0928  0.003084 -0.0034    1.0893   
    15. B(H  15,C   3)                1.0961  0.006810 -0.0077    1.0884   
    16. B(H  16,C   3)                1.0955  0.001063 -0.0012    1.0943   
    17. B(H  17,C   3)                1.0953  0.007167 -0.0081    1.0873   
    18. B(H  18,C   0)                1.0939  0.003226 -0.0036    1.0903   
    19. B(H  19,C   0)                1.0939  0.004478 -0.0050    1.0889   
    20. B(H  20,C   0)                1.0927  0.001695 -0.0019    1.0908   
    21. B(H  21,C   2)                1.0981  0.008057 -0.0091    1.0889   
    22. A(C   1,C   0,H  19)          109.05  0.000568   -0.07    108.98   
    23. A(C   1,C   0,H  18)          111.33 -0.002977    0.48    111.81   
    24. A(H  18,C   0,H  20)          109.38  0.001382   -0.19    109.19   
    25. A(C   1,C   0,H  20)          109.39  0.000184   -0.11    109.28   
    26. A(H  18,C   0,H  19)          107.94 -0.001574    0.42    108.36   
    27. A(H  19,C   0,H  20)          109.73  0.002470   -0.54    109.19   
    28. A(N   6,C   1,O   9)          123.80  0.006424   -0.66    123.13   
    29. A(C   0,C   1,O   9)          122.23  0.002524   -0.29    121.93   
    30. A(C   0,C   1,N   6)          113.96 -0.008983    0.97    114.93   
    31. A(C   3,C   2,N   6)          113.22  0.023400   -2.40    110.82   
    32. A(N   6,C   2,H  21)          104.24 -0.009977    0.39    104.63   
    33. A(C   4,C   2,H  21)          118.70  0.026142   -5.21    113.49   
    34. A(C   4,C   2,N   6)          114.62 -0.004189    1.49    116.11   
    35. A(C   3,C   2,C   4)           98.57 -0.036060    6.16    104.73   
    36. A(C   3,C   2,H  21)          107.56  0.003560   -0.65    106.90   
    37. A(H  15,C   3,H  17)          106.94 -0.002865    0.44    107.38   
    38. A(C   2,C   3,H  17)          111.72  0.000338   -0.03    111.69   
    39. A(H  15,C   3,H  16)          108.02 -0.001738    0.19    108.21   
    40. A(C   2,C   3,H  16)          111.18 -0.000111   -0.01    111.16   
    41. A(C   2,C   3,H  15)          110.75  0.004197   -0.55    110.20   
    42. A(H  16,C   3,H  17)          108.05 -0.000080    0.00    108.05   
    43. A(C   2,C   4,N   7)          114.17 -0.034033    3.77    117.95   
    44. A(N   7,C   4,O   8)          122.68  0.013253   -1.41    121.28   
    45. A(C   2,C   4,O   8)          122.62  0.020470   -2.27    120.35   
    46. A(H  13,C   5,H  14)          109.89  0.004882   -0.55    109.33   
    47. A(H  12,C   5,H  14)          110.01  0.002071   -0.43    109.59   
    48. A(N   7,C   5,H  14)          108.54 -0.000986    0.12    108.66   
    49. A(H  12,C   5,H  13)          109.46  0.004612   -0.56    108.90   
    50. A(N   7,C   5,H  13)          108.91 -0.012193    1.65    110.56   
    51. A(N   7,C   5,H  12)          110.02  0.001434   -0.20    109.82   
    52. A(C   2,N   6,H  10)          116.52  0.006823   -0.87    115.65   
    53. A(C   1,N   6,H  10)          118.32  0.011094   -1.37    116.95   
    54. A(C   1,N   6,C   2)          123.30 -0.017494    1.94    125.25   
    55. A(C   5,N   7,H  11)          117.94  0.003759   -0.50    117.44   
    56. A(C   4,N   7,H  11)          115.03 -0.007392    0.95    115.99   
    57. A(C   4,N   7,C   5)          120.51  0.003872   -0.42    120.09   
    58. D(N   6,C   1,C   0,H  20)     99.19 -0.000339   -0.10     99.09   
    59. D(O   9,C   1,C   0,H  19)     37.76  0.001701   -0.26     37.50   
    60. D(O   9,C   1,C   0,H  20)    -82.25 -0.001766    0.51    -81.74   
    61. D(N   6,C   1,C   0,H  18)    -21.81 -0.000273   -0.11    -21.91   
    62. D(O   9,C   1,C   0,H  18)    156.75 -0.001700    0.50    157.25   
    63. D(N   6,C   1,C   0,H  19)   -140.79  0.003128   -0.87   -141.67   
    64. D(H  17,C   3,C   2,C   4)     48.41 -0.010643    2.84     51.24   
    65. D(H  16,C   3,C   2,H  21)    -66.95  0.002715   -0.32    -67.27   
    66. D(H  15,C   3,C   2,C   4)    -70.70 -0.010053    2.68    -68.02   
    67. D(H  15,C   3,C   2,N   6)    167.76  0.006051   -1.68    166.08   
    68. D(H  16,C   3,C   2,N   6)     47.66  0.005513   -1.55     46.11   
    69. D(H  17,C   3,C   2,N   6)    -73.13  0.005460   -1.52    -74.65   
    70. D(H  15,C   3,C   2,H  21)     53.15  0.003253   -0.45     52.70   
    71. D(H  16,C   3,C   2,C   4)    169.20 -0.010591    2.81    172.01   
    72. D(H  17,C   3,C   2,H  21)    172.26  0.002663   -0.29    171.97   
    73. D(O   8,C   4,C   2,H  21)    -67.91  0.009205   -3.28    -71.18   
    74. D(O   8,C   4,C   2,N   6)    168.08  0.003788   -0.48    167.60   
    75. D(O   8,C   4,C   2,C   3)     47.58  0.000265   -2.12     45.46   
    76. D(N   7,C   4,C   2,H  21)    104.01  0.007559   -2.62    101.39   
    77. D(N   7,C   4,C   2,N   6)    -20.00  0.002142    0.17    -19.83   
    78. D(N   7,C   4,C   2,C   3)   -140.50 -0.001381   -1.47   -141.97   
    79. D(H  10,N   6,C   2,C   4)    140.88  0.021234   -5.38    135.50   
    80. D(H  10,N   6,C   2,C   3)   -107.11 -0.011892    1.85   -105.26   
    81. D(C   1,N   6,C   2,H  21)    173.70  0.001757   -1.37    172.32   
    82. D(C   1,N   6,C   2,C   4)    -54.91  0.025011   -6.86    -61.77   
    83. D(C   1,N   6,C   2,C   3)     57.11 -0.008115    0.37     57.48   
    84. D(H  10,N   6,C   1,O   9)    171.17  0.001665   -0.77    170.40   
    85. D(H  10,N   6,C   1,C   0)    -10.30  0.000143   -0.14    -10.44   
    86. D(C   2,N   6,C   1,O   9)      7.22 -0.001438    0.65      7.87   
    87. D(H  10,N   6,C   2,H  21)      9.48 -0.002020    0.11      9.59   
    88. D(C   2,N   6,C   1,C   0)   -174.26 -0.002960    1.28   -172.97   
    89. D(H  11,N   7,C   5,H  14)    -38.42  0.000833   -0.20    -38.62   
    90. D(H  11,N   7,C   5,H  13)     81.19 -0.000932    0.16     81.35   
    91. D(C   4,N   7,C   5,H  14)    171.29  0.002481   -0.54    170.75   
    92. D(C   4,N   7,C   5,H  13)    -69.11  0.000716   -0.18    -69.29   
    93. D(C   4,N   7,C   5,H  12)     50.87 -0.000305    0.03     50.90   
    94. D(H  11,N   7,C   4,O   8)   -163.16  0.000370   -0.31   -163.47   
    95. D(H  11,N   7,C   5,H  12)   -158.84 -0.001953    0.37   -158.47   
    96. D(H  11,N   7,C   4,C   2)     24.93  0.001364   -0.88     24.04   
    97. D(C   5,N   7,C   4,O   8)    -12.05  0.001781   -0.37    -12.42   
    98. D(C   5,N   7,C   4,C   2)    176.04  0.002775   -0.95    175.09   
    ----------------------------------------------------------------------------

         *************************************************************
         *                GEOMETRY OPTIMIZATION CYCLE   2            *
         *************************************************************
---------------------------------
CARTESIAN COORDINATES (ANGSTROEM)
---------------------------------
  C     -1.190260    3.170531   -1.758402
  C      0.080276    3.074753   -0.949717
  C      1.194332    1.785298    0.898230
  C      1.303369    2.983484    1.864297
  C      2.630371    1.597042    0.337211
  C      4.075983    1.166162   -1.567392
  N      0.138308    2.015383   -0.094565
  N      2.762974    1.249857   -0.969501
  O      3.575917    1.625033    1.072329
  O      0.970649    3.868441   -1.071182
  H     -0.703715    1.499142    0.043284
  H      2.006297    1.490952   -1.561575
  H      4.723874    0.548829   -0.949272
  H      4.518916    2.160689   -1.661093
  H      3.980715    0.719357   -2.556284
  H      1.902459    2.713377    2.731886
  H      0.316067    3.299103    2.215241
  H      1.782140    3.837942    1.392282
  H     -1.697671    2.208237   -1.830980
  H     -0.944978    3.505571   -2.764971
  H     -1.859907    3.894777   -1.292709
  H      0.841692    0.936371    1.481965

----------------------------
CARTESIAN COORDINATES (A.U.)
----------------------------
  NO LB      ZA    FRAG     MASS         X           Y           Z
   0 C     6.0000    0    12.011   -2.249265    5.991436   -3.322899
   1 C     6.0000    0    12.011    0.151699    5.810441   -1.794705
   2 C     6.0000    0    12.011    2.256961    3.373724    1.697409
   3 C     6.0000    0    12.011    2.463011    5.637969    3.523011
   4 C     6.0000    0    12.011    4.970681    3.017971    0.637236
   5 C     6.0000    0    12.011    7.702492    2.203727   -2.961942
   6 N     7.0000    0    14.007    0.261364    3.808522   -0.178702
   7 N     7.0000    0    14.007    5.221265    2.361887   -1.832092
   8 O     8.0000    0    15.999    6.757504    3.070867    2.026407
   9 O     8.0000    0    15.999    1.834261    7.310294   -2.024241
  10 H     1.0000    0     1.008   -1.329829    2.832967    0.081795
  11 H     1.0000    0     1.008    3.791353    2.817492   -2.950949
  12 H     1.0000    0     1.008    8.926829    1.037136   -1.793864
  13 H     1.0000    0     1.008    8.539514    4.083111   -3.139011
  14 H     1.0000    0     1.008    7.522462    1.359387   -4.830676
  15 H     1.0000    0     1.008    3.595127    5.127539    5.162516
[...]
     52       0.021909  -0.354994   0.050156   0.138697  -0.003593   0.002124
     53      -0.009534   0.152740  -0.021643  -0.061678   0.001602  -0.000770
     54      -0.001102  -0.028907  -0.210218  -0.000487  -0.001951   0.264985
     55      -0.002679  -0.072530  -0.527680  -0.001336  -0.004781   0.631483
     56      -0.000881  -0.022768  -0.165282  -0.000425  -0.001438   0.191273
     57       0.000619   0.010747   0.076707  -0.000349  -0.000041  -0.018547
     58       0.001490   0.031902   0.230763   0.000048   0.000155  -0.081569
     59      -0.002117  -0.045431  -0.327728  -0.000049  -0.000053   0.093771
     60      -0.001983  -0.064200  -0.457267  -0.000386   0.003967  -0.470182
     61       0.001377   0.044255   0.314780   0.000249  -0.002561   0.308655
     62       0.001769   0.055485   0.391963   0.000085  -0.003265   0.391792
     63       0.003738  -0.033536   0.005327  -0.177114   0.000750  -0.000176
     64       0.017998  -0.166482   0.023962  -0.866378   0.003398  -0.000235
     65      -0.008608   0.080669  -0.011171   0.406180  -0.001604  -0.000027
                 60         61         62         63         64         65    
      0       0.000001   0.000205  -0.034905   0.001705   0.000010  -0.000020
      1       0.000622   0.000454  -0.060948   0.003181  -0.000260  -0.000049
      2      -0.000012  -0.000338   0.062472  -0.002964  -0.000095   0.000007
      3      -0.000394  -0.000012  -0.001383   0.000336  -0.000869  -0.000093
      4      -0.000428  -0.000016  -0.001298   0.000357   0.001329  -0.000454
      5       0.000210   0.000041   0.000424   0.000121  -0.000952  -0.000191
      6      -0.001517  -0.000016  -0.000052   0.000493   0.001150  -0.000019
      7      -0.003681  -0.000121   0.000372   0.004883  -0.000088   0.000248
      8       0.002209  -0.000027  -0.000234  -0.002408   0.001532   0.000135
      9      -0.081414  -0.000387  -0.001900  -0.032192   0.000114  -0.000028
     10      -0.038439   0.001474   0.002892   0.061522  -0.000038  -0.000032
     11       0.004963  -0.001392  -0.003128  -0.063569   0.000126   0.000016
     12      -0.000735   0.001051  -0.000056  -0.000337   0.000339   0.000729
     13      -0.000679   0.000586  -0.000026  -0.000221  -0.000008  -0.000659
     14      -0.001143   0.000623   0.000041  -0.000288   0.000079  -0.000408
     15       0.000188   0.052618   0.000240  -0.001122  -0.000003  -0.001339
     16      -0.000415  -0.005924  -0.000100   0.000220   0.000027  -0.000056
     17       0.000227   0.077279   0.000426  -0.001693   0.000032   0.000943
     18       0.000378  -0.000006   0.000077   0.000168  -0.060956  -0.000576
     19       0.000114   0.000017   0.000391  -0.000154  -0.041576  -0.000623
     20      -0.000114  -0.000011  -0.000104   0.000488   0.008403   0.000056
     21       0.000110  -0.000670   0.000001   0.000015  -0.000863   0.061135
     22       0.000117  -0.000099   0.000007   0.000033  -0.000160   0.009319
     23       0.000133  -0.001229  -0.000049   0.000073  -0.000605   0.039967
     24       0.000224  -0.000739   0.000026  -0.000093   0.000022  -0.000643
     25       0.000363   0.000032   0.000015   0.000109  -0.000015  -0.000463
     26       0.000605  -0.000003   0.000022   0.000450   0.000001  -0.000910
     27       0.000256   0.000006   0.000521  -0.000172   0.000544   0.000192
     28       0.000199   0.000002   0.000572  -0.000159   0.000730   0.000123
     29       0.000299  -0.000029  -0.000292  -0.000322  -0.000199   0.000016
     30      -0.000011   0.000052  -0.001873   0.000273   0.826690   0.012712
     31       0.000251   0.000019   0.000569   0.000413   0.545150   0.006976
     32       0.001542  -0.000015  -0.001702  -0.000364  -0.116493  -0.002627
     33       0.000248   0.003487   0.000064   0.000215   0.011669  -0.830781
     34       0.000046  -0.001167  -0.000104   0.000381   0.001853  -0.109085
     35       0.000881   0.009368   0.000408   0.000253   0.008300  -0.540502
     36      -0.002932  -0.636867  -0.003212   0.013920   0.000335  -0.008281
     37       0.000885   0.223915   0.001148  -0.004899  -0.000061   0.001793
     38      -0.002901  -0.596966  -0.003064   0.012989   0.000077  -0.002753
     39       0.000770   0.044031   0.000502  -0.001165   0.000052  -0.001186
     40       0.002592   0.131476   0.001396  -0.003521   0.000059  -0.000910
     41      -0.001383  -0.053594  -0.000657   0.001487  -0.000073   0.001501
     42       0.000262  -0.028568  -0.000117   0.000606  -0.000052   0.001055
     43       0.001190  -0.287984  -0.001398   0.005945  -0.000106  -0.002716
     44       0.001239  -0.269541  -0.001299   0.005562  -0.000100  -0.004565
     45       0.365093   0.009630   0.026680   0.506623   0.000160   0.000272
     46      -0.113873  -0.002682  -0.007349  -0.141781   0.000020   0.000055
     47       0.391415   0.009690   0.027548   0.520709   0.000324   0.000649
     48       0.506183  -0.001658   0.002481   0.009694  -0.000320   0.000241
     49       0.005161   0.000035   0.000286   0.005124  -0.000162  -0.000035
     50      -0.226653   0.000526  -0.001469  -0.010052  -0.000354  -0.000196
     51       0.103917  -0.003087  -0.005933  -0.127701  -0.000112  -0.000078
     52       0.561905  -0.014958  -0.027605  -0.599591  -0.000171  -0.000097
     53      -0.234821   0.006182   0.011418   0.246261  -0.000246  -0.000147
     54      -0.001421  -0.001113   0.128123  -0.007195   0.001217   0.000791
     55      -0.003612  -0.002664   0.319032  -0.017679   0.003014   0.000617
     56      -0.001022  -0.000824   0.102967  -0.005746  -0.000301   0.000243
     57      -0.000748  -0.000996   0.156090  -0.007620   0.000146   0.000080
     58      -0.001987  -0.003071   0.511640  -0.025114   0.000248  -0.000053
     59       0.002829   0.004437  -0.727373   0.035700  -0.000043   0.000062
     60       0.002661  -0.000434   0.141372  -0.006251   0.000170  -0.000217
     61      -0.001677   0.000361  -0.105069   0.004724   0.000108   0.000306
     62      -0.002000   0.000344  -0.116599   0.005244   0.000241   0.000213
     63       0.010942  -0.000443  -0.000481  -0.008967   0.001274   0.000213
     64       0.049598  -0.000433  -0.003111  -0.054935   0.007202  -0.000361
     65      -0.020663   0.000312   0.001262   0.021776  -0.005174   0.000161


-----------
IR SPECTRUM
-----------

 Mode   freq       eps      Int      T**2         TX        TY        TZ
       cm**-1   L/(mol*cm) km/mol    a.u.
----------------------------------------------------------------------------
  6:     55.96   0.000407    2.05  0.002267  ( 0.020063  0.027743 -0.033084)
  7:     68.24   0.000421    2.13  0.001925  (-0.010769  0.042205  0.005233)
  8:     78.03   0.000396    2.00  0.001584  ( 0.025190 -0.010242 -0.029070)
  9:     84.27   0.001962    9.92  0.007265  ( 0.029373 -0.078187 -0.017006)
 10:     86.37   0.000912    4.61  0.003296  (-0.004194  0.043429  0.037313)
 11:    166.88   0.000430    2.17  0.000804  ( 0.006824 -0.021110  0.017647)
 12:    194.78   0.000599    3.03  0.000959  (-0.022309  0.006816 -0.020375)
 13:    222.90   0.000199    1.01  0.000279  ( 0.014036  0.006429 -0.006350)
 14:    255.15   0.000173    0.87  0.000212  ( 0.003646  0.014075  0.000573)
 15:    338.13   0.001718    8.68  0.001585  (-0.015998  0.009034  0.035321)
 16:    368.11   0.001838    9.29  0.001558  ( 0.012107 -0.035966 -0.010870)
 17:    395.72   0.002292   11.58  0.001808  ( 0.025123 -0.025470 -0.022972)
 18:    485.11   0.005173   26.14  0.003327  (-0.002010  0.040834 -0.040694)
 19:    518.62   0.008144   41.16  0.004900  (-0.035889  0.051610  0.030801)
 20:    532.59   0.007923   40.04  0.004642  ( 0.023770 -0.062795  0.011581)
 21:    564.45   0.017612   89.00  0.009737  ( 0.025110  0.088100  0.036669)
 22:    637.01   0.010304   52.07  0.005048  ( 0.018628 -0.063837 -0.025018)
 23:    680.59   0.000787    3.98  0.000361  ( 0.012886  0.006274 -0.012461)
 24:    737.70   0.000847    4.28  0.000358  (-0.003470  0.002228  0.018471)
 25:    847.38   0.003781   19.11  0.001393  ( 0.006209 -0.036048  0.007389)
 26:    914.22   0.001757    8.88  0.000600  (-0.022114  0.006584  0.008216)
 27:    988.65   0.000129    0.65  0.000041  (-0.002149 -0.000938  0.005926)
 28:   1016.21   0.000565    2.85  0.000173  ( 0.008891 -0.000638  0.009694)
 29:   1085.30   0.004023   20.33  0.001157  (-0.007825  0.033047 -0.001829)
 30:   1136.52   0.000869    4.39  0.000239  ( 0.002647  0.008437  0.012668)
 31:   1149.15   0.002823   14.27  0.000767  (-0.018640  0.014678  0.014276)
 32:   1174.32   0.000276    1.39  0.000073  ( 0.007468 -0.001017 -0.004054)
 33:   1240.60   0.003860   19.51  0.000971  ( 0.014239 -0.020549 -0.018597)
 34:   1242.87   0.001135    5.73  0.000285  ( 0.012845 -0.003813 -0.010262)
 35:   1256.98   0.003359   16.97  0.000834  ( 0.026912 -0.008142  0.006586)
 36:   1287.71   0.000191    0.96  0.000046  (-0.004292  0.002722  0.004520)
 37:   1363.46   0.019031   96.17  0.004356  (-0.051682  0.028209  0.029813)
 38:   1382.26   0.022806  115.25  0.005149  ( 0.029579 -0.032765  0.056571)
 39:   1456.63   0.003311   16.73  0.000709  ( 0.001476  0.008635 -0.025151)
 40:   1483.39   0.008410   42.50  0.001769  (-0.017782  0.017654 -0.033783)
 41:   1515.45   0.007699   38.91  0.001585  (-0.029843  0.019277 -0.017976)
 42:   1528.76   0.004663   23.57  0.000952  ( 0.015029  0.004333  0.026594)
 43:   1565.54   0.003454   17.45  0.000688  ( 0.013228  0.021075 -0.008326)
 44:   1566.84   0.001534    7.75  0.000306  ( 0.002218  0.004937 -0.016622)
 45:   1585.78   0.001950    9.86  0.000384  (-0.005636 -0.017614  0.006464)
 46:   1586.80   0.001456    7.36  0.000286  (-0.001918  0.000207  0.016810)
 47:   1592.82   0.005174   26.15  0.001014  ( 0.014797 -0.023467 -0.015620)
 48:   1604.56   0.001067    5.39  0.000208  ( 0.004841  0.011975 -0.006380)
 49:   1616.02   0.001370    6.92  0.000264  (-0.012233 -0.006261  0.008698)
 50:   1681.30   0.052137  263.48  0.009677  (-0.035624  0.058630 -0.070503)
 51:   1706.57   0.061101  308.78  0.011173  (-0.039250  0.042578  0.088428)
 52:   1973.23   0.050515  255.28  0.007989  (-0.052129 -0.017580 -0.070444)
 53:   1989.58   0.073339  370.62  0.011503  ( 0.081798  0.069331 -0.002332)
 54:   3185.95   0.011850   59.89  0.001161  ( 0.022130  0.000030 -0.025904)
 55:   3192.14   0.005501   27.80  0.000538  (-0.015048  0.010130  0.014447)
 56:   3192.57   0.001397    7.06  0.000137  ( 0.011543  0.001776 -0.000328)
 57:   3209.68   0.003792   19.16  0.000369  ( 0.000131  0.016636 -0.009586)
 58:   3267.59   0.007495   37.88  0.000716  ( 0.000627 -0.026120 -0.005758)
 59:   3275.06   0.002484   12.55  0.000237  (-0.001672 -0.012775 -0.008406)
 60:   3288.36   0.002864   14.47  0.000272  (-0.015671 -0.004600  0.002246)
 61:   3319.71   0.001907    9.63  0.000179  ( 0.007412 -0.001044  0.011099)
 62:   3323.72   0.000950    4.80  0.000089  (-0.002898 -0.007472  0.004996)
 63:   3324.47   0.001632    8.25  0.000153  (-0.004052  0.007942 -0.008584)
 64:   3872.74   0.009198   46.48  0.000741  ( 0.019739  0.017633 -0.006374)
 65:   3909.37   0.009981   50.44  0.000797  (-0.022382 -0.002827 -0.016965)

* The epsilon (eps) is given for a Dirac delta lineshape.
** The dipole moment derivative (T) already includes vibrational overlap.

The first frequency considered to be a vibration is 6
The total number of vibrations considered is 60


--------------------------
THERMOCHEMISTRY AT 298.15K
--------------------------

Temperature         ... 298.15 K
Pressure            ... 1.00 atm
Total Mass          ... 144.17 AMU

Throughout the following assumptions are being made:
  (1) The electronic state is orbitally nondegenerate
  (2) There are no thermally accessible electronically excited states
  (3) Hindered rotations indicated by low frequency modes are not
      treated as such but are treated as vibrations and this may
      cause some error
  (4) All equations used are the standard statistical mechanics
      equations for an ideal gas
  (5) All vibrations are strictly harmonic

freq.      55.96  E(vib)   ...       0.52 
freq.      68.24  E(vib)   ...       0.50 
freq.      78.03  E(vib)   ...       0.49 
freq.      84.27  E(vib)   ...       0.48 
freq.      86.37  E(vib)   ...       0.48 
freq.     166.88  E(vib)   ...       0.39 
freq.     194.78  E(vib)   ...       0.36 
freq.     222.90  E(vib)   ...       0.33 
freq.     255.15  E(vib)   ...       0.30 
freq.     338.13  E(vib)   ...       0.24 
freq.     368.11  E(vib)   ...       0.21 
freq.     395.72  E(vib)   ...       0.20 
freq.     485.11  E(vib)   ...       0.15 
freq.     518.62  E(vib)   ...       0.13 
freq.     532.59  E(vib)   ...       0.13 
freq.     564.45  E(vib)   ...       0.11 
freq.     637.01  E(vib)   ...       0.09 
freq.     680.59  E(vib)   ...       0.08 
freq.     737.70  E(vib)   ...       0.06 
freq.     847.38  E(vib)   ...       0.04 
freq.     914.22  E(vib)   ...       0.03 
freq.     988.65  E(vib)   ...       0.02 
freq.    1016.21  E(vib)   ...       0.02 
freq.    1085.30  E(vib)   ...       0.02 
freq.    1136.52  E(vib)   ...       0.01 
freq.    1149.15  E(vib)   ...       0.01 
freq.    1174.32  E(vib)   ...       0.01 
freq.    1240.60  E(vib)   ...       0.01 
freq.    1242.87  E(vib)   ...       0.01 
freq.    1256.98  E(vib)   ...       0.01 
freq.    1287.71  E(vib)   ...       0.01 
freq.    1363.46  E(vib)   ...       0.01 
freq.    1382.26  E(vib)   ...       0.01 
freq.    1456.63  E(vib)   ...       0.00 
freq.    1483.39  E(vib)   ...       0.00 
freq.    1515.45  E(vib)   ...       0.00 
freq.    1528.76  E(vib)   ...       0.00 
freq.    1565.54  E(vib)   ...       0.00 
freq.    1566.84  E(vib)   ...       0.00 
freq.    1585.78  E(vib)   ...       0.00 
freq.    1586.80  E(vib)   ...       0.00 
freq.    1592.82  E(vib)   ...       0.00 
freq.    1604.56  E(vib)   ...       0.00 
freq.    1616.02  E(vib)   ...       0.00 
freq.    1681.30  E(vib)   ...       0.00 
freq.    1706.57  E(vib)   ...       0.00 
freq.    1973.23  E(vib)   ...       0.00 
freq.    1989.58  E(vib)   ...       0.00 
freq.    3185.95  E(vib)   ...       0.00 
freq.    3192.14  E(vib)   ...       0.00 
freq.    3192.57  E(vib)   ...       0.00 
freq.    3209.68  E(vib)   ...       0.00 
freq.    3267.59  E(vib)   ...       0.00 
freq.    3275.06  E(vib)   ...       0.00 
freq.    3288.36  E(vib)   ...       0.00 
freq.    3319.71  E(vib)   ...       0.00 
freq.    3323.72  E(vib)   ...       0.00 
freq.    3324.47  E(vib)   ...       0.00 
freq.    3872.74  E(vib)   ...       0.00 
freq.    3909.37  E(vib)   ...       0.00 

------------
INNER ENERGY
------------

The inner energy is: U= E(el) + E(ZPE) + E(vib) + E(rot) + E(trans)
    E(el)   - is the total energy from the electronic structure calculation
              = E(kin-el) + E(nuc-el) + E(el-el) + E(nuc-nuc)
    E(ZPE)  - the the zero temperature vibrational energy from the frequency calculation
    E(vib)  - the the finite temperature correction to E(ZPE) due to population
              of excited vibrational states
    E(rot)  - is the rotational thermal energy
    E(trans)- is the translational thermal energy

Summary of contributions to the inner energy U:
Electronic energy                ...   -492.49291337 Eh
Zero point energy                ...      0.19904551 Eh     124.90 kcal/mol
Thermal vibrational correction   ...      0.00872649 Eh       5.48 kcal/mol
Thermal rotational correction    ...      0.00141627 Eh       0.89 kcal/mol
Thermal translational correction ...      0.00141627 Eh       0.89 kcal/mol
-----------------------------------------------------------------------
Total thermal energy                   -492.28230882 Eh


Summary of corrections to the electronic energy:
(perhaps to be used in another calculation)
Total thermal correction                  0.01155903 Eh       7.25 kcal/mol
Non-thermal (ZPE) correction              0.19904551 Eh     124.90 kcal/mol
-----------------------------------------------------------------------
Total correction                          0.21060455 Eh     132.16 kcal/mol


--------
ENTHALPY
--------

The enthalpy is H = U + kB*T
                kB is Boltzmann's constant
Total free energy                 ...   -492.28230882 Eh 
Thermal Enthalpy correction       ...      0.00094421 Eh       0.59 kcal/mol
-----------------------------------------------------------------------
Total Enthalpy                    ...   -492.28136461 Eh


Note: Only C1 symmetry has been detected, increase convergence thresholds 
      if your molecule has a higher symmetry. Symmetry factor of 1.0 is   
      used for the rotational entropy correction. 
 

Note: Rotational entropy computed according to Herzberg 
Infrared and Raman Spectra, Chapter V,1, Van Nostrand Reinhold, 1945 
Point Group:  C1, Symmetry Number:   1  
Rotational constants in cm-1:     0.062849     0.032709     0.025534 

Vibrational entropy computed according to the QRRHO of S. Grimme
Chem.Eur.J. 2012 18 9955


-------
ENTROPY
-------

The entropy contributions are T*S = T*(S(el)+S(vib)+S(rot)+S(trans))
     S(el)   - electronic entropy
     S(vib)  - vibrational entropy
     S(rot)  - rotational entropy
     S(trans)- translational entropy
The entropies will be listed as multiplied by the temperature to get
units of energy

Electronic entropy                ...      0.00000000 Eh      0.00 kcal/mol
Vibrational entropy               ...      0.01557660 Eh      9.77 kcal/mol
Rotational entropy                ...      0.01416320 Eh      8.89 kcal/mol
Translational entropy             ...      0.01938939 Eh     12.17 kcal/mol
-----------------------------------------------------------------------
Final entropy term                ...      0.04912919 Eh     30.83 kcal/mol

In case the symmetry of your molecule has not been determined correctly
or in case you have a reason to use a different symmetry number we print 
out the resulting rotational entropy values for sn=1,12 :
 --------------------------------------------------------
|  sn= 1 | S(rot)=       0.01416320 Eh      8.89 kcal/mol|
|  sn= 2 | S(rot)=       0.01350875 Eh      8.48 kcal/mol|
|  sn= 3 | S(rot)=       0.01312591 Eh      8.24 kcal/mol|
|  sn= 4 | S(rot)=       0.01285429 Eh      8.07 kcal/mol|
|  sn= 5 | S(rot)=       0.01264360 Eh      7.93 kcal/mol|
|  sn= 6 | S(rot)=       0.01247146 Eh      7.83 kcal/mol|
|  sn= 7 | S(rot)=       0.01232591 Eh      7.73 kcal/mol|
|  sn= 8 | S(rot)=       0.01219983 Eh      7.66 kcal/mol|
|  sn= 9 | S(rot)=       0.01208863 Eh      7.59 kcal/mol|
|  sn=10 | S(rot)=       0.01198915 Eh      7.52 kcal/mol|
|  sn=11 | S(rot)=       0.01189916 Eh      7.47 kcal/mol|
|  sn=12 | S(rot)=       0.01181700 Eh      7.42 kcal/mol|
 --------------------------------------------------------


-------------------
GIBBS FREE ENERGY
-------------------

The Gibbs free energy is G = H - T*S

Total enthalpy                    ...   -492.28136461 Eh 
Total entropy correction          ...     -0.04912919 Eh    -30.83 kcal/mol
-----------------------------------------------------------------------
Final Gibbs free energy         ...   -492.33049380 Eh

For completeness - the Gibbs free energy minus the electronic energy
G-E(el)                           ...      0.16241957 Eh    101.92 kcal/mol


Timings for individual modules:

Sum of individual times         ...     3101.058 sec (=  51.684 min)
GTO integral calculation        ...        7.148 sec (=   0.119 min)   0.2 %
SCF iterations                  ...     1009.870 sec (=  16.831 min)  32.6 %
SCF Gradient evaluation         ...      513.457 sec (=   8.558 min)  16.6 %
Geometry relaxation             ...        0.852 sec (=   0.014 min)   0.0 %
Analytical frequency calculation...     1569.731 sec (=  26.162 min)  50.6 %
                             ****ORCA TERMINATED NORMALLY****
TOTAL RUN TIME: 0 days 0 hours 51 minutes 42 seconds 756 msec
