
                                 *****************
                                 * O   R   C   A *
                                 *****************

                                            #,                                       
                                            ###                                      
                                            ####                                     
                                            #####                                    
                                            ######                                   
                                           ########,                                 
                                     ,,################,,,,,                         
                               ,,#################################,,                 
                          ,,##########################################,,             
                       ,#########################################, ''#####,          
                    ,#############################################,,   '####,        
                  ,##################################################,,,,####,       
                ,###########''''           ''''###############################       
              ,#####''   ,,,,##########,,,,          '''####'''          '####       
            ,##' ,,,,###########################,,,                        '##       
           ' ,,###''''                  '''############,,,                           
         ,,##''                                '''############,,,,        ,,,,,,###''
      ,#''                                            '''#######################'''  
     '                                                          ''''####''''         
             ,#######,   #######,   ,#######,      ##                                
            ,#'     '#,  ##    ##  ,#'     '#,    #''#        ######   ,####,        
            ##       ##  ##   ,#'  ##            #'  '#       #        #'  '#        
            ##       ##  #######   ##           ,######,      #####,   #    #        
            '#,     ,#'  ##    ##  '#,     ,#' ,#      #,         ##   #,  ,#        
             '#######'   ##     ##  '#######'  #'      '#     #####' # '####'        



                  #######################################################
                  #                        -***-                        #
                  #          Department of theory and spectroscopy      #
                  #    Directorship and core code : Frank Neese         #
                  #        Max Planck Institute fuer Kohlenforschung    #
                  #                Kaiser Wilhelm Platz 1               #
                  #                 D-45470 Muelheim/Ruhr               #
                  #                      Germany                        #
                  #                                                     #
                  #                  All rights reserved                #
                  #                        -***-                        #
                  #######################################################


                         Program Version 5.0.4 -  RELEASE  -


 With contributions from (in alphabetic order):
   Daniel Aravena         : Magnetic Suceptibility
   Michael Atanasov       : Ab Initio Ligand Field Theory (pilot matlab implementation)
   Alexander A. Auer      : GIAO ZORA, VPT2 properties, NMR spectrum
   Ute Becker             : Parallelization
   Giovanni Bistoni       : ED, misc. LED, open-shell LED, HFLD
   Martin Brehm           : Molecular dynamics
   Dmytro Bykov           : SCF Hessian
   Vijay G. Chilkuri      : MRCI spin determinant printing, contributions to CSF-ICE
   Dipayan Datta          : RHF DLPNO-CCSD density
   Achintya Kumar Dutta   : EOM-CC, STEOM-CC
   Dmitry Ganyushin       : Spin-Orbit,Spin-Spin,Magnetic field MRCI
   Miquel Garcia          : C-PCM and meta-GGA Hessian, CC/C-PCM, Gaussian charge scheme
   Yang Guo               : DLPNO-NEVPT2, F12-NEVPT2, CIM, IAO-localization
   Andreas Hansen         : Spin unrestricted coupled pair/coupled cluster methods
   Benjamin Helmich-Paris : MC-RPA, TRAH-SCF, COSX integrals
   Lee Huntington         : MR-EOM, pCC
   Robert Izsak           : Overlap fitted RIJCOSX, COSX-SCS-MP3, EOM
   Marcus Kettner         : VPT2
   Christian Kollmar      : KDIIS, OOCD, Brueckner-CCSD(T), CCSD density, CASPT2, CASPT2-K
   Simone Kossmann        : Meta GGA functionals, TD-DFT gradient, OOMP2, MP2 Hessian
   Martin Krupicka        : Initial AUTO-CI
   Lucas Lang             : DCDCAS
   Marvin Lechner         : AUTO-CI (C++ implementation), FIC-MRCC
   Dagmar Lenk            : GEPOL surface, SMD
   Dimitrios Liakos       : Extrapolation schemes; Compound Job, initial MDCI parallelization
   Dimitrios Manganas     : Further ROCIS development; embedding schemes
   Dimitrios Pantazis     : SARC Basis sets
   Anastasios Papadopoulos: AUTO-CI, single reference methods and gradients
   Taras Petrenko         : DFT Hessian,TD-DFT gradient, ASA, ECA, R-Raman, ABS, FL, XAS/XES, NRVS
   Peter Pinski           : DLPNO-MP2, DLPNO-MP2 Gradient
   Christoph Reimann      : Effective Core Potentials
   Marius Retegan         : Local ZFS, SOC
   Christoph Riplinger    : Optimizer, TS searches, QM/MM, DLPNO-CCSD(T), (RO)-DLPNO pert. Triples
   Tobias Risthaus        : Range-separated hybrids, TD-DFT gradient, RPA, STAB
   Michael Roemelt        : Original ROCIS implementation
   Masaaki Saitow         : Open-shell DLPNO-CCSD energy and density
   Barbara Sandhoefer     : DKH picture change effects
   Avijit Sen             : IP-ROCIS
   Kantharuban Sivalingam : CASSCF convergence, NEVPT2, FIC-MRCI
   Bernardo de Souza      : ESD, SOC TD-DFT
   Georgi Stoychev        : AutoAux, RI-MP2 NMR, DLPNO-MP2 response
   Willem Van den Heuvel  : Paramagnetic NMR
   Boris Wezisla          : Elementary symmetry handling
   Frank Wennmohs         : Technical directorship


 We gratefully acknowledge several colleagues who have allowed us to
 interface, adapt or use parts of their codes:
   Stefan Grimme, W. Hujo, H. Kruse, P. Pracht,  : VdW corrections, initial TS optimization,
                  C. Bannwarth, S. Ehlert          DFT functionals, gCP, sTDA/sTD-DF
   Ed Valeev, F. Pavosevic, A. Kumar             : LibInt (2-el integral package), F12 methods
   Garnet Chan, S. Sharma, J. Yang, R. Olivares  : DMRG
   Ulf Ekstrom                                   : XCFun DFT Library
   Mihaly Kallay                                 : mrcc  (arbitrary order and MRCC methods)
   Jiri Pittner, Ondrej Demel                    : Mk-CCSD
   Frank Weinhold                                : gennbo (NPA and NBO analysis)
   Christopher J. Cramer and Donald G. Truhlar   : smd solvation model
   Lars Goerigk                                  : TD-DFT with DH, B97 family of functionals
   V. Asgeirsson, H. Jonsson                     : NEB implementation
   FAccTs GmbH                                   : IRC, NEB, NEB-TS, DLPNO-Multilevel, CI-OPT
                                                   MM, QMMM, 2- and 3-layer-ONIOM, Crystal-QMMM,
                                                   LR-CPCM, SF, NACMEs, symmetry and pop. for TD-DFT,
                                                   nearIR, NL-DFT gradient (VV10), updates on ESD,
                                                   ML-optimized integration grids
   S Lehtola, MJT Oliveira, MAL Marques          : LibXC Library
   Liviu Ungur et al                             : ANISO software


 Your calculation uses the libint2 library for the computation of 2-el integrals
 For citations please refer to: http://libint.valeyev.net

 Your ORCA version has been built with support for libXC version: 5.1.0
 For citations please refer to: https://tddft.org/programs/libxc/

 This ORCA versions uses:
   CBLAS   interface :  Fast vector & matrix operations
   LAPACKE interface :  Fast linear algebra routines
   SCALAPACK package :  Parallel linear algebra routines
   Shared memory     :  Shared parallel matrices
   BLAS/LAPACK       :  OpenBLAS 0.3.15  USE64BITINT DYNAMIC_ARCH NO_AFFINITY Haswell SINGLE_THREADED
        Core in use  :  Haswell
   Copyright (c) 2011-2014, The OpenBLAS Project


================================================================================

----- Orbital basis set information -----
Your calculation utilizes the basis: def2-SVP
   F. Weigend and R. Ahlrichs, Phys. Chem. Chem. Phys. 7, 3297 (2005).

================================================================================
                                        WARNINGS
                       Please study these warnings very carefully!
================================================================================


WARNING: Geometry Optimization
  ===> : Switching off AutoStart
         For restart on a previous wavefunction, please use MOREAD

INFO   : the flag for use of the SHARK integral package has been found!

================================================================================
                                       INPUT FILE
================================================================================
NAME = neg73_72.inp
|  1> # avogadro generated ORCA input file 
|  2> # Basic Mode
|  3> # 
|  4> ! RHF OPT FREQ def2-SVP 
|  5> 
|  6> * xyz 0 1
|  7>    C       -2.94708        0.44289       -0.73613
|  8>    C       -1.87313        1.42505       -0.35252
|  9>    C        0.53183        1.61825        0.32130
| 10>    C        0.92991        2.74399       -0.62725
| 11>    C        0.38836        2.08093        1.78584
| 12>    C       -0.85748        3.53787        3.31577
| 13>    N       -0.64601        0.86061       -0.10684
| 14>    N       -0.50440        3.11114        1.98847
| 15>    H        1.35265        0.88912        0.31416
| 16>    O       -2.10042        2.62629       -0.24458
| 17>    H       -0.59699       -0.14406        0.01146
| 18>    H       -1.16833        3.29070        1.23196
| 19>    H        0.04720        3.70707        3.90568
| 20>    H       -1.45869        2.75711        3.78936
| 21>    H       -1.43673        4.46086        3.24351
| 22>    H       -3.72598        0.45069        0.03094
| 23>    H        1.87032        3.20089       -0.30114
| 24>    H        0.18588        3.54367       -0.67574
| 25>    H        1.07053        2.36058       -1.64305
| 26>    H       -2.55589       -0.57393       -0.82730
| 27>    H       -3.37252        0.73810       -1.69884
| 28>    O        0.99459        1.52547        2.70056
| 29> *
| 30> 
| 31> 
| 32>                          ****END OF INPUT****
================================================================================

                       *****************************
                       * Geometry Optimization Run *
                       *****************************

Geometry optimization settings:
Update method            Update   .... BFGS
Choice of coordinates    CoordSys .... Z-matrix Internals
Initial Hessian          InHess   .... Almoef's Model

Convergence Tolerances:
Energy Change            TolE     ....  5.0000e-06 Eh
Max. Gradient            TolMAXG  ....  3.0000e-04 Eh/bohr
RMS Gradient             TolRMSG  ....  1.0000e-04 Eh/bohr
Max. Displacement        TolMAXD  ....  4.0000e-03 bohr
RMS Displacement         TolRMSD  ....  2.0000e-03 bohr
Strict Convergence                ....  False
------------------------------------------------------------------------------
                        ORCA OPTIMIZATION COORDINATE SETUP
------------------------------------------------------------------------------

The optimization will be done in new redundant internal coordinates
Making redundant internal coordinates   ...  (new redundants) done
Evaluating the initial hessian          ...  (Almloef) done
Evaluating the coordinates              ...  done
Calculating the B-matrix                .... done
Calculating the G-matrix                .... done
Diagonalizing the G-matrix              .... done
Small eigenvalue found = 1.067e-02
Small eigenvalue found = 2.337e-02
Small eigenvalue found = 2.768e-02
The first mode is                       ....   38
The number of degrees of freedom        ....   60

    -----------------------------------------------------------------
                    Redundant Internal Coordinates


    -----------------------------------------------------------------
         Definition                    Initial Value    Approx d2E/dq
    -----------------------------------------------------------------
      1. B(C   1,C   0)                  1.5050         0.409440   
      2. B(C   3,C   2)                  1.5250         0.380555   
      3. B(C   4,C   2)                  1.5426         0.356711   
      4. B(N   6,C   2)                  1.4645         0.425683   
      5. B(N   6,C   1)                  1.3729         0.595942   
      6. B(N   7,C   5)                  1.4382         0.468745   
      7. B(N   7,C   4)                  1.3782         0.584407   
      8. B(H   8,C   2)                  1.0979         0.349775   
      9. B(O   9,C   1)                  1.2273         1.017273   
     10. B(H  10,N   6)                  1.0128         0.428283   
     11. B(H  11,N   7)                  1.0224         0.413402   
     12. B(H  12,C   5)                  1.0932         0.355902   
     13. B(H  13,C   5)                  1.0933         0.355748   
     14. B(H  14,C   5)                  1.0921         0.357345   
     15. B(H  15,C   0)                  1.0932         0.355858   
     16. B(H  16,C   3)                  1.0952         0.353278   
     17. B(H  17,C   3)                  1.0934         0.355692   
     18. B(H  18,C   3)                  1.0948         0.353782   
     19. B(H  19,C   0)                  1.0933         0.355785   
     20. B(H  20,C   0)                  1.0931         0.355968   
     21. B(O  21,C   4)                  1.2299         1.007474   
     22. A(C   1,C   0,H  15)          108.9598         0.328609   
     23. A(C   1,C   0,H  19)          111.8927         0.328598   
     24. A(H  15,C   0,H  19)          108.6679         0.289750   
     25. A(H  15,C   0,H  20)          109.7989         0.289774   
     26. A(H  19,C   0,H  20)          108.4807         0.289764   
     27. A(C   1,C   0,H  20)          109.0232         0.328626   
     28. A(N   6,C   1,O   9)          123.5180         0.465277   
     29. A(C   0,C   1,N   6)          114.5270         0.397771   
     30. A(C   0,C   1,O   9)          121.9369         0.437498   
     31. A(C   3,C   2,N   6)          114.2060         0.370432   
     32. A(C   4,C   2,H   8)          105.9560         0.320343   
     33. A(C   3,C   2,C   4)          113.1669         0.361638   
     34. A(N   6,C   2,H   8)          104.8221         0.327805   
     35. A(C   4,C   2,N   6)          110.9735         0.366341   
     36. A(C   3,C   2,H   8)          106.9203         0.323756   
     37. A(H  17,C   3,H  18)          107.6016         0.289473   
     38. A(H  16,C   3,H  18)          108.1847         0.289164   
     39. A(H  16,C   3,H  17)          107.0017         0.289408   
     40. A(C   2,C   3,H  17)          112.9466         0.324649   
     41. A(C   2,C   3,H  16)          110.2980         0.324286   
     42. A(C   2,C   3,H  18)          110.6175         0.324362   
     43. A(C   2,C   4,N   7)          115.0902         0.386964   
     44. A(N   7,C   4,O  21)          123.1974         0.462797   
     45. A(C   2,C   4,O  21)          121.6539         0.426052   
     46. A(H  13,C   5,H  14)          109.9099         0.289935   
     47. A(H  12,C   5,H  14)          110.1107         0.289955   
     48. A(N   7,C   5,H  14)          108.6577         0.334257   
     49. A(H  12,C   5,H  13)          109.3814         0.289751   
     50. A(N   7,C   5,H  13)          108.8369         0.334008   
     51. A(N   7,C   5,H  12)          109.9233         0.334032   
     52. A(C   2,N   6,H  10)          116.1118         0.336092   
     53. A(C   1,N   6,H  10)          118.1644         0.355643   
     54. A(C   1,N   6,C   2)          123.9530         0.397939   
     55. A(C   4,N   7,H  11)          116.3042         0.352349   
     56. A(C   4,N   7,C   5)          121.0980         0.403358   
     57. A(C   5,N   7,H  11)          118.1203         0.339527   
     58. D(N   6,C   1,C   0,H  20)   -124.0195         0.012417   
     59. D(O   9,C   1,C   0,H  19)    177.4687         0.012417   
     60. D(O   9,C   1,C   0,H  20)     57.4749         0.012417   
     61. D(N   6,C   1,C   0,H  15)    116.1597         0.012417   
     62. D(O   9,C   1,C   0,H  15)    -62.3458         0.012417   
     63. D(N   6,C   1,C   0,H  19)     -4.0257         0.012417   
     64. D(H  18,C   3,C   2,C   4)    177.0578         0.011541   
     65. D(H  17,C   3,C   2,H   8)   -178.5466         0.011541   
     66. D(H  16,C   3,C   2,C   4)     57.4099         0.011541   
     67. D(H  16,C   3,C   2,N   6)   -174.3303         0.011541   
     68. D(H  17,C   3,C   2,N   6)     65.9905         0.011541   
     69. D(H  18,C   3,C   2,N   6)    -54.6824         0.011541   
     70. D(H  16,C   3,C   2,H   8)    -58.8674         0.011541   
     71. D(H  17,C   3,C   2,C   4)    -62.2693         0.011541   
     72. D(H  18,C   3,C   2,H   8)     60.7805         0.011541   
     73. D(O  21,C   4,C   2,H   8)     -9.2319         0.009583   
     74. D(O  21,C   4,C   2,N   6)    104.0060         0.009583   
     75. D(O  21,C   4,C   2,C   3)   -126.0783         0.009583   
     76. D(N   7,C   4,C   2,H   8)    173.4668         0.009583   
     77. D(N   7,C   4,C   2,N   6)    -73.2954         0.009583   
     78. D(N   7,C   4,C   2,C   3)     56.6203         0.009583   
     79. D(H  10,N   6,C   2,C   4)    -92.2968         0.015450   
     80. D(H  10,N   6,C   2,C   3)    138.3377         0.015450   
     81. D(C   1,N   6,C   2,H   8)   -173.8234         0.015450   
     82. D(C   1,N   6,C   2,C   4)     72.2242         0.015450   
     83. D(C   1,N   6,C   2,C   3)    -57.1412         0.015450   
     84. D(H  10,N   6,C   1,O   9)    164.7020         0.028589   
     85. D(H  10,N   6,C   1,C   0)    -13.7768         0.028589   
     86. D(C   2,N   6,C   1,O   9)      0.4752         0.028589   
     87. D(H  10,N   6,C   2,H   8)     21.6555         0.015450   
     88. D(C   2,N   6,C   1,C   0)   -178.0036         0.028589   
     89. D(H  11,N   7,C   5,H  14)    -34.0190         0.018771   
     90. D(H  11,N   7,C   5,H  13)     85.6482         0.018771   
     91. D(C   4,N   7,C   5,H  14)    170.5964         0.018771   
     92. D(C   4,N   7,C   5,H  13)    -69.7364         0.018771   
     93. D(C   4,N   7,C   5,H  12)     50.0393         0.018771   
     94. D(H  11,N   7,C   4,O  21)   -160.4817         0.027420   
     95. D(H  11,N   7,C   5,H  12)   -154.5761         0.018771   
     96. D(H  11,N   7,C   4,C   2)     16.7730         0.027420   
     97. D(C   5,N   7,C   4,O  21)     -4.6734         0.027420   
     98. D(C   5,N   7,C   4,C   2)    172.5813         0.027420   
    -----------------------------------------------------------------

Number of atoms                         .... 22
Number of degrees of freedom            .... 98

         *************************************************************
         *                GEOMETRY OPTIMIZATION CYCLE   1            *
         *************************************************************
---------------------------------
CARTESIAN COORDINATES (ANGSTROEM)
---------------------------------
  C     -2.947080    0.442890   -0.736130
  C     -1.873130    1.425050   -0.352520
  C      0.531830    1.618250    0.321300
  C      0.929910    2.743990   -0.627250
  C      0.388360    2.080930    1.785840
  C     -0.857480    3.537870    3.315770
  N     -0.646010    0.860610   -0.106840
  N     -0.504400    3.111140    1.988470
  H      1.352650    0.889120    0.314160
  O     -2.100420    2.626290   -0.244580
  H     -0.596990   -0.144060    0.011460
  H     -1.168330    3.290700    1.231960
  H      0.047200    3.707070    3.905680
  H     -1.458690    2.757110    3.789360
  H     -1.436730    4.460860    3.243510
  H     -3.725980    0.450690    0.030940
  H      1.870320    3.200890   -0.301140
  H      0.185880    3.543670   -0.675740
  H      1.070530    2.360580   -1.643050
  H     -2.555890   -0.573930   -0.827300
  H     -3.372520    0.738100   -1.698840
  O      0.994590    1.525470    2.700560

----------------------------
CARTESIAN COORDINATES (A.U.)
----------------------------
  NO LB      ZA    FRAG     MASS         X           Y           Z
   0 C     6.0000    0    12.011   -5.569174    0.836941   -1.391084
   1 C     6.0000    0    12.011   -3.539703    2.692954   -0.666166
   2 C     6.0000    0    12.011    1.005013    3.058049    0.607169
   3 C     6.0000    0    12.011    1.757275    5.185390   -1.185331
   4 C     6.0000    0    12.011    0.733894    3.932388    3.374749
   5 C     6.0000    0    12.011   -1.620402    6.685605    6.265897
   6 N     7.0000    0    14.007   -1.220782    1.626317   -0.201898
   7 N     7.0000    0    14.007   -0.953178    5.879203    3.757664
   8 H     1.0000    0     1.008    2.556138    1.680193    0.593676
   9 O     8.0000    0    15.999   -3.969219    4.962969   -0.462189
  10 H     1.0000    0     1.008   -1.128148   -0.272234    0.021656
  11 H     1.0000    0     1.008   -2.207824    6.218522    2.328067
  12 H     1.0000    0     1.008    0.089195    7.005347    7.380666
  13 H     1.0000    0     1.008   -2.756525    5.210183    7.160853
  14 H     1.0000    0     1.008   -2.715026    8.429804    6.129346
  15 H     1.0000    0     1.008   -7.041082    0.851681    0.058468
  16 H     1.0000    0     1.008    3.534393    6.048805   -0.569072
  17 H     1.0000    0     1.008    0.351262    6.696566   -1.276964
  18 H     1.0000    0     1.008    2.023009    4.460850   -3.104915
  19 H     1.0000    0     1.008   -4.829932   -1.084571   -1.563370
  20 H     1.0000    0     1.008   -6.373139    1.394807   -3.210342
  21 O     8.0000    0    15.999    1.879503    2.882721    5.103319

--------------------------------
INTERNAL COORDINATES (ANGSTROEM)
--------------------------------
 C      0   0   0     0.000000000000     0.00000000     0.00000000
 C      1   0   0     1.505046012652     0.00000000     0.00000000
 C      2   1   0     2.505033379818   143.50896081     0.00000000
 C      3   2   1     1.524960765561    98.06142822   132.35846196
 C      3   2   1     1.542573769678   100.90731029   247.94920623
 C      5   3   2     2.452646993373   144.85006325   319.32951267
 N      2   1   3     1.372870959122   114.52703814     1.62779251
 N      5   3   2     1.378191560923   115.09016927   312.86351079
 H      3   2   1     1.097919400002   131.66543286    11.05841039
 O      2   1   3     1.227309791903   121.93689828   183.12221320
 H      7   2   1     1.012797936066   118.16444283   346.22317784
 H      8   5   3     1.022424676248   116.30420554    16.77303501
 H      6   5   3     1.093191817798    90.46903508   214.38789300
 H      6   5   3     1.093310170903    97.19933205   104.78270334
 H      6   5   3     1.092090934950   136.90286708   335.18571932
 H      1   2   3     1.093225701719   108.95978359   114.53194704
 H      4   3   2     1.095206058329   110.29795511   162.98364166
 H      4   3   2     1.093352652807   112.94661522    43.30444336
 H      4   3   2     1.094818182394   110.61746037   282.63154035
 H      1   2   3     1.093281527055   111.89273863   354.34649896
 H      1   2   3     1.093141656786   109.02316950   234.35266232
 O      5   3   2     1.229944430818   121.65390848   130.16487402

---------------------------
INTERNAL COORDINATES (A.U.)
---------------------------
 C      0   0   0     0.000000000000     0.00000000     0.00000000
 C      1   0   0     2.844124782863     0.00000000     0.00000000
 C      2   1   0     4.733827044186   143.50896081     0.00000000
 C      3   2   1     2.881758211885    98.06142822   132.35846196
 C      3   2   1     2.915041966063   100.90731029   247.94920623
 C      5   3   2     4.634831120660   144.85006325   319.32951267
 N      2   1   3     2.594350129954   114.52703814     1.62779251
 N      5   3   2     2.604404610226   115.09016927   312.86351079
 H      3   2   1     2.074766983122   131.66543286    11.05841039
 O      2   1   3     2.319279388176   121.93689828   183.12221320
 H      7   2   1     1.913910728166   118.16444283   346.22317784
 H      8   5   3     1.932102630671   116.30420554    16.77303501
 H      6   5   3     2.065833147481    90.46903508   214.38789300
 H      6   5   3     2.066056802437    97.19933205   104.78270334
 H      6   5   3     2.063752780394   136.90286708   335.18571932
 H      1   2   3     2.065897178814   108.95978359   114.53194704
 H      4   3   2     2.069639510453   110.29795511   162.98364166
 H      4   3   2     2.066137081601   112.94661522    43.30444336
 H      4   3   2     2.068906531162   110.61746037   282.63154035
 H      1   2   3     2.066002673409   111.89273863   354.34649896
 H      1   2   3     2.065738356906   109.02316950   234.35266232
 O      5   3   2     2.324258134188   121.65390848   130.16487402

---------------------
BASIS SET INFORMATION
---------------------
There are 4 groups of distinct atoms

 Group   1 Type C   : 7s4p1d contracted to 3s2p1d pattern {511/31/1}
 Group   2 Type N   : 7s4p1d contracted to 3s2p1d pattern {511/31/1}
 Group   3 Type H   : 4s1p contracted to 2s1p pattern {31/1}
 Group   4 Type O   : 7s4p1d contracted to 3s2p1d pattern {511/31/1}

Atom   0C    basis set group =>   1
Atom   1C    basis set group =>   1
Atom   2C    basis set group =>   1
Atom   3C    basis set group =>   1
Atom   4C    basis set group =>   1
Atom   5C    basis set group =>   1
Atom   6N    basis set group =>   2
Atom   7N    basis set group =>   2
Atom   8H    basis set group =>   3
Atom   9O    basis set group =>   4
Atom  10H    basis set group =>   3
Atom  11H    basis set group =>   3
Atom  12H    basis set group =>   3
Atom  13H    basis set group =>   3
Atom  14H    basis set group =>   3
Atom  15H    basis set group =>   3
Atom  16H    basis set group =>   3
Atom  17H    basis set group =>   3
Atom  18H    basis set group =>   3
Atom  19H    basis set group =>   3
Atom  20H    basis set group =>   3
Atom  21O    basis set group =>   4
------------------------------------------------------------------------------
                           ORCA GTO INTEGRAL CALCULATION
------------------------------------------------------------------------------
------------------------------------------------------------------------------
                   ___                                                        
                  /   \      - P O W E R E D   B Y -                         
                 /     \                                                     
                 |  |  |   _    _      __       _____    __    __             
                 |  |  |  | |  | |    /  \     |  _  \  |  |  /  |          
                  \  \/   | |  | |   /    \    | | | |  |  | /  /          
                 / \  \   | |__| |  /  /\  \   | |_| |  |  |/  /          
                |  |  |   |  __  | /  /__\  \  |    /   |      \           
                |  |  |   | |  | | |   __   |  |    \   |  |\   \          
                \     /   | |  | | |  |  |  |  | |\  \  |  | \   \       
                 \___/    |_|  |_| |__|  |__|  |_| \__\ |__|  \__/        
                                                                              
                      - O R C A' S   B I G   F R I E N D -                    
                                      &                                       
                       - I N T E G R A L  F E E D E R -                       
                                                                              
 v1 FN, 2020, v2 2021                                                         
------------------------------------------------------------------------------


Reading SHARK input file neg73_72.SHARKINP.tmp ... ok
----------------------
SHARK INTEGRAL PACKAGE
----------------------

Number of atoms                             ...     22
Number of basis functions                   ...    200
Number of shells                            ...     96
Maximum angular momentum                    ...      2
Integral batch strategy                     ... SHARK/LIBINT Hybrid
RI-J (if used) integral strategy            ... SPLIT-RIJ (Revised 2003 algorithm where possible)
Printlevel                                  ...      1
Contraction scheme used                     ... SEGMENTED contraction
Coulomb Range Separation                    ... NOT USED
Exchange Range Separation                   ... NOT USED
Finite Nucleus Model                        ... NOT USED
Auxiliary Coulomb fitting basis             ... NOT available
Auxiliary J/K fitting basis                 ... NOT available
Auxiliary Correlation fitting basis         ... NOT available
Auxiliary 'external' fitting basis          ... NOT available
Integral threshold                          ...     2.500000e-11
Primitive cut-off                           ...     2.500000e-12
Primitive pair pre-selection threshold      ...     2.500000e-12

Calculating pre-screening integrals         ... done (  0.1 sec) Dimension = 96
Organizing shell pair data                  ... done (  0.1 sec)
Shell pair information
Total number of shell pairs                 ...      4656
Shell pairs after pre-screening             ...      4254
Total number of primitive shell pairs       ...     16456
Primitive shell pairs kept                  ...     10641
          la=0 lb=0:   1371 shell pairs
          la=1 lb=0:   1580 shell pairs
          la=1 lb=1:    472 shell pairs
          la=2 lb=0:    493 shell pairs
          la=2 lb=1:    286 shell pairs
          la=2 lb=2:     52 shell pairs

Calculating one electron integrals          ... done (  0.0 sec)
Calculating Nuclear repulsion               ... done (  0.0 sec) ENN=    568.240692000856 Eh

SHARK setup successfully completed in   0.4 seconds

Maximum memory used throughout the entire GTOINT-calculation: 27.1 MB
-------------------------------------------------------------------------------
                                 ORCA SCF
-------------------------------------------------------------------------------

------------
SCF SETTINGS
------------
Hamiltonian:
 Ab initio Hamiltonian  Method          .... Hartree-Fock(GTOs)


General Settings:
 Integral files         IntName         .... neg73_72
 Hartree-Fock type      HFTyp           .... RHF
 Total Charge           Charge          ....    0
 Multiplicity           Mult            ....    1
 Number of Electrons    NEL             ....   78
 Basis Dimension        Dim             ....  200
 Nuclear Repulsion      ENuc            ....    568.2406920009 Eh

Convergence Acceleration:
 DIIS                   CNVDIIS         .... on
   Start iteration      DIISMaxIt       ....    12
   Startup error        DIISStart       ....  0.200000
   # of expansion vecs  DIISMaxEq       ....     5
   Bias factor          DIISBfac        ....   1.050
   Max. coefficient     DIISMaxC        ....  10.000
 Trust-Rad. Augm. Hess. CNVTRAH         .... auto
   Auto Start mean grad. ratio tolernc. ....  1.125000
   Auto Start start iteration           ....    20
   Auto Start num. interpolation iter.  ....    10
   Max. Number of Micro iterations      ....    16
   Max. Number of Macro iterations      .... Maxiter - #DIIS iter
   Number of Davidson start vectors     ....     2
   Converg. threshold I  (grad. norm)   ....   1.000e-05
   Converg. threshold II (energy diff.) ....   1.000e-08
   Grad. Scal. Fac. for Micro threshold ....   0.100
   Minimum threshold for Micro iter.    ....   0.010
   NR start threshold (gradient norm)   ....   0.001
   Initial trust radius                 ....   0.400
   Minimum AH scaling param. (alpha)    ....   1.000
   Maximum AH scaling param. (alpha)    .... 1000.000
   Orbital update algorithm             .... Taylor
   White noise on init. David. guess    .... on
   Maximum white noise                  ....   0.010
   Quad. conv. algorithm                .... NR
 SOSCF                  CNVSOSCF        .... on
   Start iteration      SOSCFMaxIt      ....   150
   Startup grad/error   SOSCFStart      ....  0.003300
 Level Shifting         CNVShift        .... on
   Level shift para.    LevelShift      ....    0.2500
   Turn off err/grad.   ShiftErr        ....    0.0010
 Zerner damping         CNVZerner       .... off
 Static damping         CNVDamp         .... on
   Fraction old density DampFac         ....    0.7000
   Max. Damping (<1)    DampMax         ....    0.9800
   Min. Damping (>=0)   DampMin         ....    0.0000
   Turn off err/grad.   DampErr         ....    0.1000
 Fernandez-Rico         CNVRico         .... off

SCF Procedure:
 Maximum # iterations   MaxIter         ....   125
 SCF integral mode      SCFMode         .... Direct
   Integral package                     .... SHARK and LIBINT hybrid scheme
 Reset frequency        DirectResetFreq ....    20
 Integral Threshold     Thresh          ....  2.500e-11 Eh
 Primitive CutOff       TCut            ....  2.500e-12 Eh

Convergence Tolerance:
 Convergence Check Mode ConvCheckMode   .... Total+1el-Energy
 Convergence forced     ConvForced      .... 0
 Energy Change          TolE            ....  1.000e-08 Eh
 1-El. energy change                    ....  1.000e-05 Eh
 Orbital Gradient       TolG            ....  1.000e-05
 Orbital Rotation angle TolX            ....  1.000e-05
 DIIS Error             TolErr          ....  5.000e-07


Diagonalization of the overlap matrix:
Smallest eigenvalue                        ... 1.677e-03
Time for diagonalization                   ...    0.008 sec
Threshold for overlap eigenvalues          ... 1.000e-08
Number of eigenvalues below threshold      ... 0
Time for construction of square roots      ...    0.006 sec
Total time needed                          ...    0.014 sec

Time for model grid setup =    0.483 sec

------------------------------
INITIAL GUESS: MODEL POTENTIAL
------------------------------
Loading Hartree-Fock densities                     ... done
Calculating cut-offs                               ... done
Initializing the effective Hamiltonian             ... done
Setting up the integral package (SHARK)            ... done
Starting the Coulomb interaction                   ... done (   0.3 sec)
Reading the grid                                   ... done
Mapping shells                                     ... done
Starting the XC term evaluation                    ... done (   0.3 sec)
Transforming the Hamiltonian                       ... done (   0.0 sec)
Diagonalizing the Hamiltonian                      ... done (   0.0 sec)
Back transforming the eigenvectors                 ... done (   0.0 sec)
Now organizing SCF variables                       ... done
                      ------------------
                      INITIAL GUESS DONE (   1.1 sec)
                      ------------------
--------------
SCF ITERATIONS
--------------
ITER       Energy         Delta-E        Max-DP      RMS-DP      [F,P]     Damp
               ***  Starting incremental Fock matrix formation  ***
  0   -492.0651658042   0.000000000000 0.06474963  0.00201524  0.2490281 0.7000
  1   -492.2132686995  -0.148102895293 0.04584179  0.00150700  0.1509035 0.7000
                               ***Turning on DIIS***
  2   -492.3017025346  -0.088433835102 0.09141478  0.00320954  0.0850600 0.0000
  3   -491.7920051996   0.509697334948 0.03518502  0.00098148  0.0497903 0.0000
  4   -492.4994916248  -0.707486425154 0.01020621  0.00032801  0.0075789 0.0000
  5   -492.4857149821   0.013776642700 0.00590114  0.00017039  0.0050844 0.0000
                      *** Initiating the SOSCF procedure ***
                           *** Shutting down DIIS ***
                      *** Re-Reading the Fockian *** 
                      *** Removing any level shift *** 
ITER      Energy       Delta-E        Grad      Rot      Max-DP    RMS-DP
  6   -492.48542838   0.0002865975  0.001901  0.001901  0.003603  0.000099
               *** Restarting incremental Fock matrix formation ***
  7   -492.48584875  -0.0004203654  0.000758  0.001369  0.001845  0.000051
  8   -492.48586910  -0.0000203515  0.000383  0.001591  0.001811  0.000055
  9   -492.48587720  -0.0000081035  0.000083  0.000104  0.000401  0.000009
 10   -492.48587761  -0.0000004028  0.000046  0.000047  0.000135  0.000004
 11   -492.48587773  -0.0000001271  0.000010  0.000015  0.000038  0.000001
 12   -492.48587774  -0.0000000089  0.000003  0.000009  0.000020  0.000001
                  ***Gradient check signals convergence***
              ***Rediagonalizing the Fockian in SOSCF/NRSCF***

               *****************************************************
               *                     SUCCESS                       *
               *           SCF CONVERGED AFTER  13 CYCLES          *
               *****************************************************


----------------
TOTAL SCF ENERGY
----------------

Total Energy       :         -492.48587775 Eh          -13401.22204 eV

Components:
Nuclear Repulsion  :          568.24069200 Eh           15462.61533 eV
Electronic Energy  :        -1060.72656975 Eh          -28863.83737 eV
One Electron Energy:        -1799.20497865 Eh          -48958.85649 eV
Two Electron Energy:          738.47840891 Eh           20095.01912 eV

Virial components:
Potential Energy   :         -982.61737344 Eh          -26738.37808 eV
Kinetic Energy     :          490.13149569 Eh           13337.15605 eV
Virial Ratio       :            2.00480357


---------------
SCF CONVERGENCE
---------------

  Last Energy change         ...   -1.7371e-09  Tolerance :   1.0000e-08
  Last MAX-Density change    ...    4.8513e-06  Tolerance :   1.0000e-07
  Last RMS-Density change    ...    1.3130e-07  Tolerance :   5.0000e-09
  Last Orbital Gradient      ...    1.3957e-06  Tolerance :   1.0000e-05
  Last Orbital Rotation      ...    1.1505e-06  Tolerance :   1.0000e-05

             **** THE GBW FILE WAS UPDATED (neg73_72.gbw) ****
             **** DENSITY neg73_72.scfp WAS UPDATED ****
             **** ENERGY FILE WAS UPDATED (neg73_72.en.tmp) ****
             **** THE GBW FILE WAS UPDATED (neg73_72.gbw) ****
             **** DENSITY neg73_72.scfp WAS UPDATED ****
----------------
ORBITAL ENERGIES
----------------

  NO   OCC          E(Eh)            E(eV) 
   0   2.0000     -20.534606      -558.7750 
   1   2.0000     -20.507301      -558.0320 
   2   2.0000     -15.607413      -424.6993 
   3   2.0000     -15.559428      -423.3936 
   4   2.0000     -11.377186      -309.5890 
   5   2.0000     -11.342321      -308.6402 
   6   2.0000     -11.289771      -307.2103 
   7   2.0000     -11.257990      -306.3455 
   8   2.0000     -11.251738      -306.1754 
   9   2.0000     -11.232180      -305.6432 
  10   2.0000      -1.386919       -37.7400 
  11   2.0000      -1.349762       -36.7289 
  12   2.0000      -1.238038       -33.6887 
  13   2.0000      -1.195473       -32.5305 
  14   2.0000      -1.053495       -28.6671 
  15   2.0000      -0.994639       -27.0655 
  16   2.0000      -0.931275       -25.3413 
  17   2.0000      -0.878642       -23.9091 
  18   2.0000      -0.801448       -21.8085 
  19   2.0000      -0.756762       -20.5925 
  20   2.0000      -0.721317       -19.6280 
  21   2.0000      -0.707844       -19.2614 
  22   2.0000      -0.657787       -17.8993 
  23   2.0000      -0.632972       -17.2240 
  24   2.0000      -0.627699       -17.0805 
  25   2.0000      -0.615666       -16.7531 
  26   2.0000      -0.605761       -16.4836 
  27   2.0000      -0.584928       -15.9167 
  28   2.0000      -0.575879       -15.6705 
  29   2.0000      -0.565996       -15.4015 
  30   2.0000      -0.544129       -14.8065 
  31   2.0000      -0.539642       -14.6844 
  32   2.0000      -0.530083       -14.4243 
  33   2.0000      -0.512070       -13.9341 
  34   2.0000      -0.505279       -13.7493 
  35   2.0000      -0.447535       -12.1781 
  36   2.0000      -0.435540       -11.8517 
  37   2.0000      -0.394666       -10.7394 
  38   2.0000      -0.372908       -10.1473 
  39   0.0000       0.149635         4.0718 
  40   0.0000       0.159536         4.3412 
  41   0.0000       0.186879         5.0852 
  42   0.0000       0.193804         5.2737 
  43   0.0000       0.202237         5.5031 
  44   0.0000       0.217259         5.9119 
  45   0.0000       0.240033         6.5316 
  46   0.0000       0.253417         6.8958 
  47   0.0000       0.259547         7.0626 
  48   0.0000       0.265973         7.2375 
  49   0.0000       0.278701         7.5838 
  50   0.0000       0.286189         7.7876 
  51   0.0000       0.288432         7.8486 
  52   0.0000       0.315072         8.5735 
  53   0.0000       0.351841         9.5741 
  54   0.0000       0.371770        10.1164 
  55   0.0000       0.393147        10.6981 
  56   0.0000       0.421761        11.4767 
  57   0.0000       0.430179        11.7058 
  58   0.0000       0.440575        11.9887 
  59   0.0000       0.494311        13.4509 
  60   0.0000       0.521440        14.1891 
  61   0.0000       0.554215        15.0810 
  62   0.0000       0.602292        16.3892 
  63   0.0000       0.631036        17.1714 
  64   0.0000       0.634917        17.2770 
  65   0.0000       0.643459        17.5094 
  66   0.0000       0.648544        17.6478 
  67   0.0000       0.651714        17.7340 
  68   0.0000       0.685396        18.6506 
  69   0.0000       0.705250        19.1908 
  70   0.0000       0.713235        19.4081 
  71   0.0000       0.718525        19.5520 
  72   0.0000       0.777091        21.1457 
  73   0.0000       0.816532        22.2190 
  74   0.0000       0.824404        22.4332 
  75   0.0000       0.833956        22.6931 
  76   0.0000       0.841268        22.8921 
  77   0.0000       0.857199        23.3256 
  78   0.0000       0.862994        23.4833 
  79   0.0000       0.872240        23.7349 
  80   0.0000       0.879361        23.9286 
  81   0.0000       0.885650        24.0998 
  82   0.0000       0.890262        24.2253 
  83   0.0000       0.896562        24.3967 
  84   0.0000       0.899219        24.4690 
  85   0.0000       0.907105        24.6836 
  86   0.0000       0.912006        24.8170 
  87   0.0000       0.921438        25.0736 
  88   0.0000       0.928748        25.2725 
  89   0.0000       0.947768        25.7901 
  90   0.0000       0.957648        26.0589 
  91   0.0000       0.971902        26.4468 
  92   0.0000       0.981976        26.7209 
  93   0.0000       1.030386        28.0382 
  94   0.0000       1.041912        28.3519 
  95   0.0000       1.085301        29.5326 
  96   0.0000       1.109009        30.1777 
  97   0.0000       1.144117        31.1330 
  98   0.0000       1.161784        31.6137 
  99   0.0000       1.188156        32.3314 
 100   0.0000       1.209858        32.9219 
 101   0.0000       1.251245        34.0481 
 102   0.0000       1.268065        34.5058 
 103   0.0000       1.293421        35.1958 
 104   0.0000       1.345962        36.6255 
 105   0.0000       1.369481        37.2655 
 106   0.0000       1.407960        38.3125 
 107   0.0000       1.418726        38.6055 
 108   0.0000       1.434108        39.0241 
 109   0.0000       1.467617        39.9359 
 110   0.0000       1.482789        40.3487 
 111   0.0000       1.517780        41.3009 
 112   0.0000       1.547611        42.1126 
 113   0.0000       1.575758        42.8786 
 114   0.0000       1.592198        43.3259 
 115   0.0000       1.633025        44.4369 
 116   0.0000       1.654598        45.0239 
 117   0.0000       1.689139        45.9638 
 118   0.0000       1.692500        46.0553 
 119   0.0000       1.751009        47.6474 
 120   0.0000       1.766906        48.0800 
 121   0.0000       1.778186        48.3869 
 122   0.0000       1.805666        49.1347 
 123   0.0000       1.820923        49.5498 
 124   0.0000       1.833587        49.8945 
 125   0.0000       1.872301        50.9479 
 126   0.0000       1.895101        51.5683 
 127   0.0000       1.927207        52.4420 
 128   0.0000       1.990714        54.1701 
 129   0.0000       2.006491        54.5994 
 130   0.0000       2.020341        54.9763 
 131   0.0000       2.037861        55.4530 
 132   0.0000       2.045404        55.6583 
 133   0.0000       2.048867        55.7525 
 134   0.0000       2.058543        56.0158 
 135   0.0000       2.066396        56.2295 
 136   0.0000       2.088657        56.8352 
 137   0.0000       2.097355        57.0719 
 138   0.0000       2.106608        57.3237 
 139   0.0000       2.131751        58.0079 
 140   0.0000       2.145291        58.3763 
 141   0.0000       2.151730        58.5515 
 142   0.0000       2.187418        59.5227 
 143   0.0000       2.203976        59.9732 
 144   0.0000       2.217246        60.3343 
 145   0.0000       2.247514        61.1580 
 146   0.0000       2.262132        61.5557 
 147   0.0000       2.280497        62.0555 
 148   0.0000       2.302728        62.6604 
 149   0.0000       2.328176        63.3529 
 150   0.0000       2.337793        63.6146 
 151   0.0000       2.365976        64.3815 
 152   0.0000       2.369267        64.4710 
 153   0.0000       2.403217        65.3949 
 154   0.0000       2.440054        66.3972 
 155   0.0000       2.468835        67.1804 
 156   0.0000       2.505196        68.1698 
 157   0.0000       2.562252        69.7224 
 158   0.0000       2.570489        69.9466 
 159   0.0000       2.616290        71.1929 
 160   0.0000       2.640131        71.8416 
 161   0.0000       2.686637        73.1071 
 162   0.0000       2.708499        73.7020 
 163   0.0000       2.733435        74.3805 
 164   0.0000       2.741630        74.6035 
 165   0.0000       2.768031        75.3219 
 166   0.0000       2.807799        76.4041 
 167   0.0000       2.832173        77.0673 
 168   0.0000       2.856664        77.7338 
 169   0.0000       2.890101        78.6437 
 170   0.0000       2.931102        79.7593 
 171   0.0000       2.954865        80.4060 
 172   0.0000       3.008414        81.8631 
 173   0.0000       3.021736        82.2256 
 174   0.0000       3.037217        82.6469 
 175   0.0000       3.063912        83.3733 
 176   0.0000       3.100414        84.3666 
 177   0.0000       3.115593        84.7796 
 178   0.0000       3.126744        85.0830 
 179   0.0000       3.160997        86.0151 
 180   0.0000       3.197940        87.0204 
 181   0.0000       3.228697        87.8573 
 182   0.0000       3.248641        88.4000 
 183   0.0000       3.261074        88.7383 
 184   0.0000       3.283226        89.3411 
 185   0.0000       3.297343        89.7253 
 186   0.0000       3.312154        90.1283 
 187   0.0000       3.330220        90.6199 
 188   0.0000       3.355634        91.3114 
 189   0.0000       3.405585        92.6707 
 190   0.0000       3.472064        94.4797 
 191   0.0000       3.540730        96.3482 
 192   0.0000       3.554738        96.7294 
 193   0.0000       3.582719        97.4907 
 194   0.0000       3.644077        99.1604 
 195   0.0000       3.663534        99.6898 
 196   0.0000       3.911574       106.4393 
 197   0.0000       3.940058       107.2144 
 198   0.0000       4.065601       110.6306 
 199   0.0000       4.079198       111.0006 

                    ********************************
                    * MULLIKEN POPULATION ANALYSIS *
                    ********************************

-----------------------
MULLIKEN ATOMIC CHARGES
-----------------------
   0 C :   -0.020096
   1 C :    0.376532
   2 C :    0.065253
   3 C :    0.001702
   4 C :    0.416015
   5 C :    0.170463
   6 N :   -0.462849
   7 N :   -0.495532
   8 H :    0.058117
   9 O :   -0.493516
  10 H :    0.173559
  11 H :    0.212888
  12 H :    0.050617
  13 H :    0.025663
  14 H :    0.032150
  15 H :    0.078658
  16 H :    0.046230
  17 H :    0.066128
  18 H :    0.037448
  19 H :    0.034036
  20 H :    0.079530
  21 O :   -0.452995
Sum of atomic charges:    0.0000000

--------------------------------
MULLIKEN REDUCED ORBITAL CHARGES
--------------------------------
  0 C s       :     3.019044  s :     3.019044
      pz      :     1.052136  p :     2.967452
      px      :     0.981002
      py      :     0.934314
      dz2     :     0.007194  d :     0.033599
      dxz     :     0.008281
      dyz     :     0.002996
      dx2y2   :     0.004914
      dxy     :     0.010214
  1 C s       :     3.069292  s :     3.069292
      pz      :     0.678711  p :     2.416639
      px      :     0.841165
      py      :     0.896763
      dz2     :     0.008839  d :     0.137537
      dxz     :     0.014973
      dyz     :     0.029705
      dx2y2   :     0.032694
      dxy     :     0.051326
  2 C s       :     3.095772  s :     3.095772
      pz      :     0.929569  p :     2.773164
      px      :     0.839268
      py      :     1.004327
      dz2     :     0.017359  d :     0.065811
      dxz     :     0.008654
      dyz     :     0.013529
      dx2y2   :     0.007566
      dxy     :     0.018702
  3 C s       :     3.038327  s :     3.038327
      pz      :     0.952776  p :     2.923356
      px      :     1.004452
      py      :     0.966128
      dz2     :     0.008854  d :     0.036615
      dxz     :     0.003570
      dyz     :     0.009239
      dx2y2   :     0.004475
      dxy     :     0.010476
  4 C s       :     3.041010  s :     3.041010
      pz      :     0.901930  p :     2.409810
      px      :     0.756087
      py      :     0.751794
      dz2     :     0.041386  d :     0.133165
      dxz     :     0.019407
      dyz     :     0.023776
      dx2y2   :     0.026987
      dxy     :     0.021609
  5 C s       :     2.994576  s :     2.994576
      pz      :     0.795165  p :     2.782143
      px      :     1.008254
      py      :     0.978724
      dz2     :     0.014088  d :     0.052818
      dxz     :     0.013215
      dyz     :     0.011043
      dx2y2   :     0.004640
      dxy     :     0.009832
  6 N s       :     3.435080  s :     3.435080
      pz      :     1.700827  p :     4.004438
      px      :     1.188367
      py      :     1.115244
      dz2     :     0.002162  d :     0.023331
      dxz     :     0.003527
      dyz     :     0.001697
      dx2y2   :     0.008921
      dxy     :     0.007024
  7 N s       :     3.447766  s :     3.447766
      pz      :     1.196705  p :     4.023821
      px      :     1.371582
      py      :     1.455534
      dz2     :     0.006882  d :     0.023945
      dxz     :     0.006475
      dyz     :     0.003186
      dx2y2   :     0.003166
      dxy     :     0.004236
  8 H s       :     0.918915  s :     0.918915
      pz      :     0.002554  p :     0.022967
      px      :     0.011506
      py      :     0.008908
  9 O s       :     3.803967  s :     3.803967
      pz      :     1.543786  p :     4.670531
      px      :     1.801135
      py      :     1.325610
      dz2     :     0.002259  d :     0.019018
      dxz     :     0.000382
      dyz     :     0.005514
      dx2y2   :     0.006639
      dxy     :     0.004224
 10 H s       :     0.780830  s :     0.780830
      pz      :     0.011146  p :     0.045611
      px      :     0.004641
      py      :     0.029824
 11 H s       :     0.736735  s :     0.736735
      pz      :     0.022277  p :     0.050377
      px      :     0.018915
      py      :     0.009184
 12 H s       :     0.924343  s :     0.924343
      pz      :     0.006583  p :     0.025040
      px      :     0.014313
      py      :     0.004144
 13 H s       :     0.949880  s :     0.949880
      pz      :     0.005027  p :     0.024457
      px      :     0.008034
      py      :     0.011396
 14 H s       :     0.943061  s :     0.943061
      pz      :     0.002332  p :     0.024789
      px      :     0.008040
      py      :     0.014417
 15 H s       :     0.894774  s :     0.894774
      pz      :     0.011156  p :     0.026569
      px      :     0.011544
      py      :     0.003870
 16 H s       :     0.928215  s :     0.928215
      pz      :     0.004690  p :     0.025554
      px      :     0.014430
      py      :     0.006434
 17 H s       :     0.907447  s :     0.907447
      pz      :     0.003531  p :     0.026426
      px      :     0.011624
      py      :     0.011270
 18 H s       :     0.937319  s :     0.937319
      pz      :     0.015847  p :     0.025233
      px      :     0.004345
      py      :     0.005041
 19 H s       :     0.940291  s :     0.940291
      pz      :     0.004076  p :     0.025673
      px      :     0.005078
      py      :     0.016519
 20 H s       :     0.893909  s :     0.893909
      pz      :     0.015425  p :     0.026561
      px      :     0.006207
      py      :     0.004929
 21 O s       :     3.789730  s :     3.789730
      pz      :     1.546236  p :     4.643789
      px      :     1.527644
      py      :     1.569910
      dz2     :     0.003613  d :     0.019475
      dxz     :     0.005573
      dyz     :     0.005329
      dx2y2   :     0.002759
      dxy     :     0.002201


                     *******************************
                     * LOEWDIN POPULATION ANALYSIS *
                     *******************************

----------------------
LOEWDIN ATOMIC CHARGES
----------------------
   0 C :   -0.045186
   1 C :    0.191419
   2 C :    0.038549
   3 C :   -0.029986
   4 C :    0.170010
   5 C :    0.068205
   6 N :   -0.076871
   7 N :   -0.104689
   8 H :    0.033097
   9 O :   -0.319978
  10 H :    0.086169
  11 H :    0.072355
  12 H :    0.023389
  13 H :    0.008109
  14 H :    0.016557
  15 H :    0.046745
  16 H :    0.027479
  17 H :    0.027082
  18 H :    0.020587
  19 H :    0.021294
  20 H :    0.047622
  21 O :   -0.321958

-------------------------------
LOEWDIN REDUCED ORBITAL CHARGES
-------------------------------
  0 C s       :     2.835808  s :     2.835808
      pz      :     1.069241  p :     3.131319
      px      :     1.038852
      py      :     1.023227
      dz2     :     0.016207  d :     0.078059
      dxz     :     0.019504
      dyz     :     0.006329
      dx2y2   :     0.012770
      dxy     :     0.023249
  1 C s       :     2.839555  s :     2.839555
      pz      :     0.709746  p :     2.688367
      px      :     0.957697
      py      :     1.020924
      dz2     :     0.017845  d :     0.280659
      dxz     :     0.027928
      dyz     :     0.055078
      dx2y2   :     0.070161
      dxy     :     0.109648
  2 C s       :     2.839830  s :     2.839830
      pz      :     1.023204  p :     2.982174
      px      :     0.927611
      py      :     1.031359
      dz2     :     0.037073  d :     0.139448
      dxz     :     0.018015
      dyz     :     0.029424
      dx2y2   :     0.014649
      dxy     :     0.040286
  3 C s       :     2.832589  s :     2.832589
      pz      :     1.023951  p :     3.114995
      px      :     1.059375
      py      :     1.031669
      dz2     :     0.020537  d :     0.082402
      dxz     :     0.007797
      dyz     :     0.020939
      dx2y2   :     0.009725
      dxy     :     0.023403
  4 C s       :     2.848633  s :     2.848633
      pz      :     1.023771  p :     2.708953
      px      :     0.830595
      py      :     0.854586
      dz2     :     0.087916  d :     0.272405
      dxz     :     0.038914
      dyz     :     0.047589
      dx2y2   :     0.050773
      dxy     :     0.047212
  5 C s       :     2.819946  s :     2.819946
      pz      :     0.902949  p :     2.995167
      px      :     1.053480
      py      :     1.038738
      dz2     :     0.029785  d :     0.116682
      dxz     :     0.030424
      dyz     :     0.024907
      dx2y2   :     0.009660
      dxy     :     0.021906
  6 N s       :     3.062802  s :     3.062802
      pz      :     1.598634  p :     3.961363
      px      :     1.201836
      py      :     1.160894
      dz2     :     0.004414  d :     0.052706
      dxz     :     0.006655
      dyz     :     0.003323
      dx2y2   :     0.022093
      dxy     :     0.016221
  7 N s       :     3.066728  s :     3.066728
      pz      :     1.199793  p :     3.985526
      px      :     1.354945
      py      :     1.430788
      dz2     :     0.014304  d :     0.052436
      dxz     :     0.015018
      dyz     :     0.008025
      dx2y2   :     0.005681
      dxy     :     0.009408
  8 H s       :     0.901273  s :     0.901273
      pz      :     0.011118  p :     0.065630
      px      :     0.029246
      py      :     0.025265
  9 O s       :     3.544524  s :     3.544524
      pz      :     1.521949  p :     4.745530
      px      :     1.775956
      py      :     1.447626
      dz2     :     0.004252  d :     0.029924
      dxz     :     0.000443
      dyz     :     0.006181
      dx2y2   :     0.012313
      dxy     :     0.006734
 10 H s       :     0.783221  s :     0.783221
      pz      :     0.041101  p :     0.130610
      px      :     0.018601
      py      :     0.070907
 11 H s       :     0.775584  s :     0.775584
      pz      :     0.063854  p :     0.152061
      px      :     0.055321
      py      :     0.032885
 12 H s       :     0.911753  s :     0.911753
      pz      :     0.018242  p :     0.064858
      px      :     0.034493
      py      :     0.012123
 13 H s       :     0.927721  s :     0.927721
      pz      :     0.015856  p :     0.064170
      px      :     0.020798
      py      :     0.027516
 14 H s       :     0.919841  s :     0.919841
      pz      :     0.009223  p :     0.063602
      px      :     0.020334
      py      :     0.034045
 15 H s       :     0.885466  s :     0.885466
      pz      :     0.027241  p :     0.067790
      px      :     0.029099
      py      :     0.011450
 16 H s       :     0.906828  s :     0.906828
      pz      :     0.013735  p :     0.065693
      px      :     0.034103
      py      :     0.017855
 17 H s       :     0.903555  s :     0.903555
      pz      :     0.011909  p :     0.069363
      px      :     0.028173
      py      :     0.029281
 18 H s       :     0.913584  s :     0.913584
      pz      :     0.038067  p :     0.065829
      px      :     0.012710
      py      :     0.015052
 19 H s       :     0.912439  s :     0.912439
      pz      :     0.012840  p :     0.066267
      px      :     0.014732
      py      :     0.038695
 20 H s       :     0.884702  s :     0.884702
      pz      :     0.036383  p :     0.067676
      px      :     0.017628
      py      :     0.013665
 21 O s       :     3.557161  s :     3.557161
      pz      :     1.609606  p :     4.734550
      px      :     1.543477
      py      :     1.581467
      dz2     :     0.006006  d :     0.030247
      dxz     :     0.009032
      dyz     :     0.008389
      dx2y2   :     0.002999
      dxy     :     0.003821


                      *****************************
                      * MAYER POPULATION ANALYSIS *
                      *****************************

  NA   - Mulliken gross atomic population
  ZA   - Total nuclear charge
  QA   - Mulliken gross atomic charge
  VA   - Mayer's total valence
  BVA  - Mayer's bonded valence
  FA   - Mayer's free valence

  ATOM       NA         ZA         QA         VA         BVA        FA
  0 C      6.0201     6.0000    -0.0201     3.8796     3.8796    -0.0000
  1 C      5.6235     6.0000     0.3765     4.0134     4.0134     0.0000
  2 C      5.9347     6.0000     0.0653     3.7641     3.7641     0.0000
  3 C      5.9983     6.0000     0.0017     3.9182     3.9182     0.0000
  4 C      5.5840     6.0000     0.4160     4.0279     4.0279     0.0000
  5 C      5.8295     6.0000     0.1705     3.8993     3.8993    -0.0000
  6 N      7.4628     7.0000    -0.4628     2.9426     2.9426    -0.0000
  7 N      7.4955     7.0000    -0.4955     2.9792     2.9792    -0.0000
  8 H      0.9419     1.0000     0.0581     0.9936     0.9936     0.0000
  9 O      8.4935     8.0000    -0.4935     1.9529     1.9529     0.0000
 10 H      0.8264     1.0000     0.1736     0.9686     0.9686     0.0000
 11 H      0.7871     1.0000     0.2129     0.9888     0.9888    -0.0000
 12 H      0.9494     1.0000     0.0506     0.9926     0.9926     0.0000
 13 H      0.9743     1.0000     0.0257     0.9810     0.9810    -0.0000
 14 H      0.9679     1.0000     0.0321     0.9836     0.9836     0.0000
 15 H      0.9213     1.0000     0.0787     0.9916     0.9916    -0.0000
 16 H      0.9538     1.0000     0.0462     0.9797     0.9797     0.0000
 17 H      0.9339     1.0000     0.0661     1.0063     1.0063     0.0000
 18 H      0.9626     1.0000     0.0374     0.9858     0.9858     0.0000
 19 H      0.9660     1.0000     0.0340     0.9889     0.9889     0.0000
 20 H      0.9205     1.0000     0.0795     0.9940     0.9940     0.0000
 21 O      8.4530     8.0000    -0.4530     2.0382     2.0382     0.0000

  Mayer bond orders larger than 0.100000
B(  0-C ,  1-C ) :   0.9929 B(  0-C , 15-H ) :   0.9686 B(  0-C , 19-H ) :   0.9865 
B(  0-C , 20-H ) :   0.9703 B(  1-C ,  6-N ) :   1.1481 B(  1-C ,  9-O ) :   1.8202 
B(  2-C ,  3-C ) :   1.0333 B(  2-C ,  4-C ) :   0.9332 B(  2-C ,  6-N ) :   0.8578 
B(  2-C ,  8-H ) :   0.9719 B(  3-C , 16-H ) :   0.9816 B(  3-C , 17-H ) :   0.9735 
B(  3-C , 18-H ) :   0.9810 B(  4-C ,  7-N ) :   1.1742 B(  4-C , 21-O ) :   1.9542 
B(  5-C ,  7-N ) :   0.9160 B(  5-C , 12-H ) :   0.9869 B(  5-C , 13-H ) :   0.9913 
B(  5-C , 14-H ) :   0.9927 B(  6-N , 10-H ) :   0.9402 B(  7-N , 11-H ) :   0.8961 


-------
TIMINGS
-------

Total SCF time: 0 days 0 hours 1 min 32 sec 

Total time                  ....      92.860 sec
Sum of individual times     ....      92.365 sec  ( 99.5%)

Fock matrix formation       ....      91.068 sec  ( 98.1%)
Diagonalization             ....       0.064 sec  (  0.1%)
Density matrix formation    ....       0.009 sec  (  0.0%)
Population analysis         ....       0.015 sec  (  0.0%)
Initial guess               ....       0.637 sec  (  0.7%)
Orbital Transformation      ....       0.000 sec  (  0.0%)
Orbital Orthonormalization  ....       0.000 sec  (  0.0%)
DIIS solution               ....       0.044 sec  (  0.0%)
SOSCF solution              ....       0.045 sec  (  0.0%)

Maximum memory used throughout the entire SCF-calculation: 251.0 MB

-------------------------   --------------------
FINAL SINGLE POINT ENERGY      -492.485877745551
-------------------------   --------------------

------------------------------------------------------------------------------
                         ORCA SCF GRADIENT CALCULATION
------------------------------------------------------------------------------

Gradient of the Hartree-Fock SCF energy:
Hartree-Fock type                ... RHF
Number of operators              ...    1
Number of atoms                  ...   22
Basis set dimensions             ...  200
Integral neglect threshold       ... 2.5e-11
Integral primitive cutoff        ... 2.5e-12
SHARK Integral package           ... ON

Nuc. rep. gradient       (SHARK) ... done (  0.0 sec)
HCore & Overlap gradient (SHARK) ... done (  0.5 sec)
Two-Electron gradient    (SHARK) ... done ( 28.1 sec)

------------------
CARTESIAN GRADIENT
------------------

   1   C   :   -0.000319826    0.004872316    0.002487228
   2   C   :   -0.008734079   -0.023822367   -0.010955027
   3   C   :   -0.010272105    0.006235993   -0.004540809
   4   C   :    0.002900737   -0.010016855    0.005784942
   5   C   :    0.001137301    0.006092161   -0.042562412
   6   C   :   -0.001204933    0.005751546    0.000675613
   7   N   :    0.015688251   -0.009693441    0.000285238
   8   N   :   -0.016475807    0.018261120    0.020249353
   9   H   :    0.005845383   -0.004926637   -0.004743256
  10   O   :   -0.006745298    0.047022257    0.011008697
  11   H   :    0.001903428   -0.014990538    0.003935303
  12   H   :   -0.014505657    0.001456613   -0.013187259
  13   H   :    0.005111319    0.000144204    0.000348821
  14   H   :    0.000346180   -0.004796818   -0.007483452
  15   H   :   -0.001792120    0.002221950   -0.002081371
  16   H   :   -0.000300216   -0.002245988    0.003727365
  17   H   :    0.001725291    0.004166179   -0.000486960
  18   H   :   -0.002367095    0.005130395   -0.000471660
  19   H   :   -0.000191405    0.000935073   -0.003272149
  20   H   :    0.002179106   -0.002882166    0.000156687
  21   H   :    0.001274504   -0.000787640   -0.004367443
  22   O   :    0.024797041   -0.028127358    0.045492550

Difference to translation invariance:
           :    0.0000000000   -0.0000000000   -0.0000000000

Difference to rotation invariance:
           :   -0.0000006664    0.0000001053   -0.0000005063

Norm of the cartesian gradient     ...    0.1055527892
RMS gradient                       ...    0.0129926502
MAX gradient                       ...    0.0470222569

-------
TIMINGS
-------

Total SCF gradient time            ...       28.722 sec

One electron gradient       ....       0.471 sec  (  1.6%)
Two electron gradient       ....      28.125 sec  ( 97.9%)

Maximum memory used throughout the entire SCFGRAD-calculation: 41.4 MB
------------------------------------------------------------------------------
                         ORCA GEOMETRY RELAXATION STEP
------------------------------------------------------------------------------

Reading the OPT-File                    .... done
Getting information on internals        .... done
Copying old internal coords+grads       .... done
Making the new internal coordinates     .... (new redundants).... done
Validating the new internal coordinates .... (new redundants).... done
Calculating the B-matrix                .... done
Calculating the G,G- and P matrices     .... done
Transforming gradient to internals      .... done
Projecting the internal gradient        .... done
Number of atoms                         ....  22
Number of internal coordinates          ....  98
Current Energy                          ....  -492.485877746 Eh
Current gradient norm                   ....     0.105552789 Eh/bohr
Maximum allowed component of the step   ....  0.300
Current trust radius                    ....  0.300
Evaluating the initial hessian          ....  (Almloef) done
Projecting the Hessian                  .... done
Forming the augmented Hessian           .... done
Diagonalizing the augmented Hessian     .... done
Last element of RFO vector              ....  0.931188539
Lowest eigenvalues of augmented Hessian:
 -0.021182718  0.009837360  0.011541894  0.012417966  0.015812315
Length of the computed step             ....  0.391475965
Warning: the length of the step is outside the trust region - taking restricted step instead
The input lambda is                     ....    -0.021183
   iter:   1  x=   -0.031515  g=    6.121738 f(x)=     0.063253
   iter:   2  x=   -0.037261  g=    3.121110 f(x)=     0.017934
   iter:   3  x=   -0.038367  g=    2.297241 f(x)=     0.002539
   iter:   4  x=   -0.038398  g=    2.175106 f(x)=     0.000068
   iter:   5  x=   -0.038398  g=    2.171770 f(x)=     0.000000
   iter:   6  x=   -0.038398  g=    2.171767 f(x)=     0.000000
   iter:   7  x=   -0.038398  g=    2.171767 f(x)=     0.000000
The output lambda is                    ....    -0.038398 (7 iterations)
The final length of the internal step   ....  0.300000000
Converting the step to cartesian space:
 Initial RMS(Int)=    0.0303045763
Transforming coordinates:
 Iter   0:  RMS(Cart)=    0.1952979765 RMS(Int)=    0.0300339238
 Iter   1:  RMS(Cart)=    0.0102003125 RMS(Int)=    0.0045995864
 Iter   2:  RMS(Cart)=    0.0009434899 RMS(Int)=    0.0002880043
 Iter   3:  RMS(Cart)=    0.0001186547 RMS(Int)=    0.0000595111
 Iter   4:  RMS(Cart)=    0.0000107608 RMS(Int)=    0.0000059592
 Iter   5:  RMS(Cart)=    0.0000013803 RMS(Int)=    0.0000008520
 Iter   6:  RMS(Cart)=    0.0000001432 RMS(Int)=    0.0000001158
 Iter   7:  RMS(Cart)=    0.0000000183 RMS(Int)=    0.0000000141
done
Storing new coordinates                 .... done

                                .--------------------.
          ----------------------|Geometry convergence|-------------------------
          Item                value                   Tolerance       Converged
          ---------------------------------------------------------------------
          RMS gradient        0.0103733403            0.0001000000      NO
          MAX gradient        0.0587581651            0.0003000000      NO
          RMS step            0.0303045763            0.0020000000      NO
          MAX step            0.0973532931            0.0040000000      NO
          ........................................................
          Max(Bonds)      0.0301      Max(Angles)    3.41
          Max(Dihed)        5.58      Max(Improp)    0.00
          ---------------------------------------------------------------------

The optimization has not yet converged - more geometry cycles are needed


    ---------------------------------------------------------------------------
                         Redundant Internal Coordinates
                            (Angstroem and degrees)

        Definition                    Value    dE/dq     Step     New-Value
    ----------------------------------------------------------------------------
     1. B(C   1,C   0)                1.5050 -0.001852  0.0022    1.5072   
     2. B(C   3,C   2)                1.5250 -0.000268  0.0003    1.5253   
     3. B(C   4,C   2)                1.5426  0.001920 -0.0026    1.5400   
     4. B(N   6,C   2)                1.4645 -0.004506  0.0051    1.4696   
     5. B(N   6,C   1)                1.3729  0.020044 -0.0167    1.3561   
     6. B(N   7,C   5)                1.4382 -0.007500  0.0078    1.4461   
     7. B(N   7,C   4)                1.3782  0.035479 -0.0301    1.3480   
     8. B(H   8,C   2)                1.0979  0.007673 -0.0105    1.0875   
     9. B(O   9,C   1)                1.2273  0.048241 -0.0242    1.2031   
    10. B(H  10,N   6)                1.0128  0.015422 -0.0175    0.9953   
    11. B(H  11,N   7)                1.0224  0.019433 -0.0228    0.9997   
    12. B(H  12,C   5)                1.0932  0.004440 -0.0060    1.0872   
    13. B(H  13,C   5)                1.0933 -0.000006  0.0000    1.0933   
    14. B(H  14,C   5)                1.0921  0.002966 -0.0040    1.0881   
    15. B(H  15,C   0)                1.0932  0.002813 -0.0038    1.0894   
    16. B(H  16,C   3)                1.0952  0.003074 -0.0042    1.0911   
    17. B(H  17,C   3)                1.0934  0.005384 -0.0072    1.0861   
    18. B(H  18,C   3)                1.0948  0.002684 -0.0036    1.0912   
    19. B(H  19,C   0)                1.0933  0.003447 -0.0046    1.0887   
    20. B(H  20,C   0)                1.0931  0.003138 -0.0042    1.0889   
    21. B(O  21,C   4)                1.2299  0.058758 -0.0297    1.2002   
    22. A(C   1,C   0,H  15)          108.96  0.000620   -0.17    108.79   
    23. A(C   1,C   0,H  19)          111.89 -0.002714    0.60    112.50   
    24. A(H  15,C   0,H  19)          108.67 -0.000573    0.31    108.97   
    25. A(H  15,C   0,H  20)          109.80  0.002710   -0.87    108.93   
    26. A(H  19,C   0,H  20)          108.48 -0.000395    0.26    108.74   
    27. A(C   1,C   0,H  20)          109.02  0.000450   -0.15    108.87   
    28. A(N   6,C   1,O   9)          123.52 -0.001452    0.17    123.69   
    29. A(C   0,C   1,N   6)          114.53 -0.006045    0.80    115.32   
    30. A(C   0,C   1,O   9)          121.94  0.007425   -0.89    121.04   
    31. A(C   3,C   2,N   6)          114.21  0.005813   -0.31    113.89   
    32. A(C   4,C   2,H   8)          105.96  0.007088   -2.29    103.66   
    33. A(C   3,C   2,C   4)          113.17 -0.001041    0.71    113.88   
    34. A(N   6,C   2,H   8)          104.82  0.001854   -0.97    103.85   
    35. A(C   4,C   2,N   6)          110.97 -0.009094    2.20    113.17   
    36. A(C   3,C   2,H   8)          106.92 -0.003883    0.23    107.15   
    37. A(H  17,C   3,H  18)          107.60 -0.001709    0.34    107.94   
    38. A(H  16,C   3,H  18)          108.18 -0.001751    0.09    108.27   
    39. A(H  16,C   3,H  17)          107.00 -0.003005    0.64    107.65   
    40. A(C   2,C   3,H  17)          112.95  0.000572   -0.02    112.93   
    41. A(C   2,C   3,H  16)          110.30  0.003545   -0.60    109.70   
    42. A(C   2,C   3,H  18)          110.62  0.001975   -0.39    110.22   
    43. A(C   2,C   4,N   7)          115.09 -0.018088    2.40    117.49   
    44. A(N   7,C   4,O  21)          123.20  0.006551   -0.77    122.42   
    45. A(C   2,C   4,O  21)          121.65  0.011336   -1.43    120.22   
    46. A(H  13,C   5,H  14)          109.91  0.005071   -0.69    109.22   
    47. A(H  12,C   5,H  14)          110.11  0.002689   -0.69    109.42   
    48. A(N   7,C   5,H  14)          108.66 -0.000036   -0.01    108.65   
    49. A(H  12,C   5,H  13)          109.38  0.005976   -0.86    108.52   
    50. A(N   7,C   5,H  13)          108.84 -0.012917    2.15    110.99   
    51. A(N   7,C   5,H  12)          109.92 -0.001012    0.14    110.06   
    52. A(C   2,N   6,H  10)          116.11  0.010305   -1.23    114.88   
    53. A(C   1,N   6,H  10)          118.16  0.012143   -1.42    116.74   
    54. A(C   1,N   6,C   2)          123.95 -0.023718    3.41    127.36   
    55. A(C   4,N   7,H  11)          116.30 -0.001655    0.32    116.62   
    56. A(C   4,N   7,C   5)          121.10  0.003730   -0.42    120.68   
    57. A(C   5,N   7,H  11)          118.12 -0.002285    0.42    118.54   
    58. D(N   6,C   1,C   0,H  20)   -124.02  0.000515    0.77   -123.25   
    59. D(O   9,C   1,C   0,H  19)    177.47  0.001614   -1.57    175.90   
    60. D(O   9,C   1,C   0,H  20)     57.47  0.003520   -2.18     55.30   
    61. D(N   6,C   1,C   0,H  15)    116.16 -0.003407    2.02    118.18   
    62. D(O   9,C   1,C   0,H  15)    -62.35 -0.000402   -0.92    -63.27   
    63. D(N   6,C   1,C   0,H  19)     -4.03 -0.001391    1.38     -2.65   
    64. D(H  18,C   3,C   2,C   4)    177.06  0.005418   -2.24    174.82   
    65. D(H  17,C   3,C   2,H   8)   -178.55 -0.000603    0.17   -178.38   
    66. D(H  16,C   3,C   2,C   4)     57.41  0.004054   -1.71     55.70   
    67. D(H  16,C   3,C   2,N   6)   -174.33 -0.004560    1.78   -172.55   
    68. D(H  17,C   3,C   2,N   6)     65.99 -0.003586    1.39     67.38   
    69. D(H  18,C   3,C   2,N   6)    -54.68 -0.003196    1.25    -53.44   
    70. D(H  16,C   3,C   2,H   8)    -58.87 -0.001577    0.56    -58.31   
    71. D(H  17,C   3,C   2,C   4)    -62.27  0.005029   -2.10    -64.37   
    72. D(H  18,C   3,C   2,H   8)     60.78 -0.000213    0.03     60.81   
    73. D(O  21,C   4,C   2,H   8)     -9.23 -0.001675    0.81     -8.42   
    74. D(O  21,C   4,C   2,N   6)    104.01 -0.000002   -0.52    103.48   
    75. D(O  21,C   4,C   2,C   3)   -126.08 -0.000831    1.58   -124.49   
    76. D(N   7,C   4,C   2,H   8)    173.47  0.002824   -3.82    169.65   
    77. D(N   7,C   4,C   2,N   6)    -73.30  0.004497   -5.14    -78.44   
    78. D(N   7,C   4,C   2,C   3)     56.62  0.003667   -3.04     53.58   
    79. D(H  10,N   6,C   2,C   4)    -92.30 -0.003969    2.61    -89.69   
    80. D(H  10,N   6,C   2,C   3)    138.34  0.000605   -0.08    138.26   
    81. D(C   1,N   6,C   2,H   8)   -173.82 -0.002030    3.40   -170.43   
    82. D(C   1,N   6,C   2,C   4)     72.22 -0.007105    5.58     77.80   
    83. D(C   1,N   6,C   2,C   3)    -57.14 -0.002530    2.89    -54.25   
    84. D(H  10,N   6,C   1,O   9)    164.70 -0.005324    4.79    169.50   
    85. D(H  10,N   6,C   1,C   0)    -13.78 -0.002413    1.81    -11.96   
    86. D(C   2,N   6,C   1,O   9)      0.48 -0.001716    1.72      2.20   
    87. D(H  10,N   6,C   2,H   8)     21.66  0.001106    0.43     22.08   
    88. D(C   2,N   6,C   1,C   0)   -178.00  0.001194   -1.26   -179.27   
    89. D(H  11,N   7,C   5,H  14)    -34.02  0.000933    0.00    -34.02   
    90. D(H  11,N   7,C   5,H  13)     85.65 -0.000499    0.42     86.07   
    91. D(C   4,N   7,C   5,H  14)    170.60  0.001927   -0.92    169.67   
    92. D(C   4,N   7,C   5,H  13)    -69.74  0.000495   -0.51    -70.24   
    93. D(C   4,N   7,C   5,H  12)     50.04 -0.000728   -0.16     49.88   
    94. D(H  11,N   7,C   4,O  21)   -160.48  0.003784   -3.67   -164.15   
    95. D(H  11,N   7,C   5,H  12)   -154.58 -0.001723    0.76   -153.81   
    96. D(H  11,N   7,C   4,C   2)     16.77 -0.000663    1.02     17.79   
    97. D(C   5,N   7,C   4,O  21)     -4.67  0.002628   -2.73     -7.40   
    98. D(C   5,N   7,C   4,C   2)    172.58 -0.001819    1.96    174.54   
    ----------------------------------------------------------------------------

         *************************************************************
         *                GEOMETRY OPTIMIZATION CYCLE   2            *
         *************************************************************
---------------------------------
CARTESIAN COORDINATES (ANGSTROEM)
---------------------------------
  C     -2.942062    0.320470   -0.884496
  C     -1.933420    1.361838   -0.472249
  C      0.442841    1.651425    0.355842
  C      0.867665    2.757670   -0.604514
  C      0.325036    2.110246    1.821179
  C     -0.709145    3.599691    3.436530
  N     -0.720503    0.879989   -0.103746
  N     -0.454461    3.180061    2.076342
  H      1.247706    0.920520    0.379090
  O     -2.203971    2.533730   -0.503707
  H     -0.654634   -0.102530    0.041031
  H     -1.110694    3.435571    1.366835
  H      0.226862    3.677568    3.984163
  H     -1.354637    2.883904    3.952605
  H     -1.197752    4.571707    3.415009
  H     -3.791076    0.365419   -0.203279
  H      1.807307    3.197219   -0.266482
  H      0.137227    3.558151   -0.677677
  H      1.021058    2.350186   -1.605083
  H     -2.529987   -0.687084   -0.870464
  H     -3.286432    0.543638   -1.893147
  O      0.940691    1.543899    2.681839

----------------------------
CARTESIAN COORDINATES (A.U.)
----------------------------
  NO LB      ZA    FRAG     MASS         X           Y           Z
   0 C     6.0000    0    12.011   -5.559691    0.605600   -1.671455
   1 C     6.0000    0    12.011   -3.653635    2.573502   -0.892421
   2 C     6.0000    0    12.011    0.836849    3.120740    0.672444
   3 C     6.0000    0    12.011    1.639650    5.211242   -1.142366
   4 C     6.0000    0    12.011    0.614228    3.987786    3.441530
   5 C     6.0000    0    12.011   -1.340089    6.802430    6.494100
   6 N     7.0000    0    14.007   -1.361553    1.662938   -0.196052
   7 N     7.0000    0    14.007   -0.858806    6.009444    3.923718
   8 H     1.0000    0     1.008    2.357822    1.739531    0.716376
   9 O     8.0000    0    15.999   -4.164901    4.788056   -0.951869
  10 H     1.0000    0     1.008   -1.237079   -0.193754    0.077537
  11 H     1.0000    0     1.008   -2.098907    6.492289    2.582944
  12 H     1.0000    0     1.008    0.428706    6.949597    7.528976
  13 H     1.0000    0     1.008   -2.559893    5.449788    7.469341
  14 H     1.0000    0     1.008   -2.263423    8.639274    6.453431
[...]
     50       0.003492   0.206059   0.001631  -0.004242   0.223692  -0.027290
     51      -0.004039  -0.272083  -0.002807   0.000048  -0.043067  -0.121621
     52       0.004085   0.271813   0.002695   0.000090   0.030360   0.120072
     53      -0.000742  -0.028096  -0.000327   0.000099  -0.014947  -0.011155
     54       0.002190   0.105273   0.000868   0.002455  -0.117413   0.008609
     55      -0.006191  -0.278396  -0.002325  -0.005743   0.280969  -0.011307
     56      -0.013301  -0.602834  -0.005069  -0.012791   0.617503  -0.028195
     57       0.000989  -0.001781   0.213480   0.000128   0.000167   0.001768
     58      -0.002381   0.004769  -0.559403  -0.000317  -0.000328  -0.004790
     59      -0.000126   0.000354  -0.035050  -0.000006  -0.000016  -0.000293
     60      -0.000572   0.001459  -0.174695   0.000432  -0.000845   0.000395
     61       0.000641  -0.001636   0.167148  -0.000392   0.000875  -0.000628
     62      -0.001682   0.004603  -0.489959   0.001123  -0.002611   0.001845
     63      -0.000733   0.000222   0.000029   0.000043   0.000168   0.000847
     64       0.000408   0.000070  -0.000015   0.000154   0.000039  -0.000618
     65      -0.000771   0.000343   0.000050   0.000065   0.000062   0.000480
                 60         61         62         63         64         65    
      0      -0.050515  -0.041974   0.000488  -0.000429  -0.000046  -0.000206
      1       0.021513   0.071365  -0.000596   0.000569  -0.000121   0.000448
      2       0.076008  -0.046396   0.000050  -0.000142   0.000050   0.000030
      3      -0.001158  -0.001713   0.000120  -0.000095  -0.001596   0.001578
      4       0.000204   0.000764  -0.000152   0.000663   0.003159   0.000118
      5       0.000106  -0.000691   0.000000   0.000001  -0.000070   0.000556
      6       0.000341   0.000555   0.000450  -0.011325  -0.000352  -0.001534
      7      -0.000320  -0.000444  -0.000223   0.010033  -0.000393  -0.000850
      8       0.000090  -0.000007  -0.000026  -0.000165  -0.000371  -0.000501
      9       0.000286   0.000412  -0.000301  -0.074745   0.000085  -0.000189
     10       0.000064  -0.000420   0.000401   0.052264   0.000011  -0.000169
     11       0.000236  -0.000202   0.000143   0.003490  -0.000033   0.000026
     12      -0.000053  -0.000090   0.000674  -0.000453  -0.000306  -0.000039
     13       0.000041   0.000052  -0.000577   0.000572   0.000347  -0.000104
     14       0.000039   0.000036   0.000964  -0.000498  -0.000134  -0.000018
     15       0.000304   0.000689   0.087816  -0.000300  -0.000344   0.000001
     16      -0.000166  -0.000060  -0.021467  -0.000026  -0.000238   0.000023
     17       0.000131   0.000179   0.028561  -0.000280  -0.001546   0.000068
     18       0.000210   0.000477  -0.000081   0.000556   0.000893  -0.008621
     19      -0.000417  -0.000683   0.000026  -0.000146   0.000823   0.073774
     20       0.000133   0.000008  -0.000013  -0.000059   0.000393   0.002652
     21      -0.000029  -0.000082  -0.001366   0.000197   0.050327  -0.000879
     22       0.000011   0.000014   0.000553  -0.000304  -0.016491   0.000281
     23      -0.000074  -0.000113  -0.000079   0.000228   0.053558  -0.000942
     24      -0.003350  -0.004472  -0.004816   0.125963   0.000335   0.007696
     25       0.003241   0.004447   0.004516  -0.121618  -0.000003  -0.006538
     26      -0.000190  -0.000191  -0.000004   0.010028   0.000498   0.001040
     27       0.000199   0.000280  -0.000058  -0.000546   0.000736   0.000472
     28      -0.000192  -0.000461   0.000082  -0.000490  -0.001665  -0.000995
     29      -0.000143   0.000148   0.000016   0.000119   0.000005  -0.000000
     30       0.000444   0.001523  -0.000016  -0.001163   0.002987   0.104609
     31       0.002952   0.005201   0.000037   0.001358  -0.018061  -0.990735
     32       0.000821   0.000949   0.000026  -0.000101  -0.000495  -0.038615
     33       0.000521   0.001186   0.009984  -0.000251  -0.671056   0.012003
     34      -0.000439  -0.000624  -0.001392   0.000275   0.214805  -0.003442
     35       0.000670   0.001053   0.000750  -0.001935  -0.705200   0.012528
     36      -0.002369  -0.005605  -0.722482   0.003903  -0.005373  -0.000079
     37      -0.000564  -0.001300  -0.172028   0.001028  -0.003777   0.000005
     38      -0.001095  -0.002580  -0.340088   0.001971  -0.009393   0.000016
     39       0.000245  -0.000569  -0.018495  -0.000700   0.002843   0.000064
     40       0.000258  -0.000903  -0.048556  -0.000649   0.001639   0.000052
     41      -0.000264   0.000820   0.043071   0.000995  -0.004874  -0.000072
     42      -0.001439  -0.001858  -0.300166   0.000451  -0.002615   0.000114
     43       0.002225   0.002922   0.476385  -0.000651   0.003021  -0.000112
     44      -0.000226  -0.000294  -0.043908   0.000134   0.001543  -0.000032
     45       0.627707   0.032847  -0.002550   0.001804   0.000353   0.000501
     46      -0.023056   0.007343  -0.000005  -0.000005  -0.000233  -0.000227
     47      -0.506279  -0.039032   0.002101  -0.001488  -0.000334  -0.000257
     48      -0.002594  -0.000589  -0.000516   0.238245   0.001781  -0.000638
     49      -0.001370  -0.000551  -0.000225   0.122396   0.000455  -0.000315
     50      -0.000939  -0.000145  -0.000016   0.093163   0.000029  -0.000097
     51      -0.001341  -0.004193   0.003687   0.631459  -0.002659   0.000142
     52       0.001324   0.003996  -0.003642  -0.645370   0.000594   0.000314
     53      -0.000109  -0.000557   0.000435   0.079283   0.000174  -0.000097
     54       0.000422  -0.000529   0.000414   0.031914  -0.000331   0.000293
     55      -0.000819   0.001365  -0.001048  -0.095887   0.000041   0.000298
     56      -0.001833   0.003011  -0.002625  -0.220048   0.001555  -0.000238
     57       0.133435   0.244100  -0.002289   0.002176  -0.000186   0.004599
     58      -0.363307  -0.647584   0.006173  -0.006412  -0.002250  -0.006188
     59      -0.015874  -0.044684   0.000412  -0.000470  -0.000392   0.000674
     60      -0.152313   0.229753  -0.001098   0.001142   0.000405   0.000283
     61       0.134204  -0.206401   0.000977  -0.001045  -0.000080  -0.000326
     62      -0.386027   0.641734  -0.003178   0.003292   0.000471   0.000195
     63       0.000014   0.000023  -0.000256   0.000255  -0.001223  -0.000027
     64      -0.000012  -0.000023  -0.000068  -0.000183   0.000947   0.000020
     65      -0.000004   0.000001  -0.000615   0.000143  -0.000523  -0.000046


-----------
IR SPECTRUM
-----------

 Mode   freq       eps      Int      T**2         TX        TY        TZ
       cm**-1   L/(mol*cm) km/mol    a.u.
----------------------------------------------------------------------------
  7:     46.76   0.000817    4.13  0.005452  (-0.055138 -0.049024  0.002860)
  8:     67.62   0.000818    4.13  0.003775  (-0.036889 -0.043021  0.023725)
  9:     81.11   0.001421    7.18  0.005466  (-0.021677 -0.009451  0.070047)
 10:    129.64   0.002454   12.40  0.005908  (-0.002524 -0.028191 -0.071461)
 11:    154.08   0.000267    1.35  0.000542  (-0.010350 -0.015797  0.013600)
 12:    206.16   0.001152    5.82  0.001744  (-0.027762  0.004993 -0.030803)
 13:    228.38   0.000266    1.34  0.000363  (-0.017375 -0.000637 -0.007800)
 14:    262.52   0.000228    1.15  0.000271  ( 0.015830  0.000692 -0.004478)
 15:    282.90   0.002388   12.07  0.002634  (-0.038356 -0.032649  0.009834)
 16:    348.15   0.002348   11.87  0.002105  (-0.021131  0.027049  0.030440)
 17:    397.86   0.000913    4.61  0.000716  (-0.008763  0.019692  0.015861)
 18:    428.23   0.002524   12.76  0.001839  ( 0.029878  0.027261 -0.014268)
 19:    505.92   0.017589   88.89  0.010849  ( 0.035097  0.000376 -0.098067)
 20:    575.04   0.005080   25.67  0.002757  ( 0.030574  0.012654  0.040766)
 21:    664.63   0.005538   27.99  0.002600  ( 0.037331  0.034578 -0.003333)
 22:    697.77   0.009177   46.37  0.004104  (-0.010158 -0.063200 -0.002559)
 23:    710.66   0.011930   60.29  0.005239  (-0.034961 -0.052953  0.034821)
 24:    747.12   0.000350    1.77  0.000146  (-0.009027  0.008051 -0.000012)
 25:    872.41   0.000507    2.56  0.000181  (-0.008227 -0.010238  0.002972)
 26:    911.42   0.002279   11.52  0.000780  ( 0.005567  0.020794  0.017801)
 27:    987.67   0.000691    3.49  0.000218  ( 0.003534 -0.014301 -0.001168)
 28:   1018.67   0.001322    6.68  0.000405  (-0.017381  0.009102  0.004490)
 29:   1086.67   0.000629    3.18  0.000181  ( 0.001903  0.002387  0.013092)
 30:   1118.78   0.002000   10.10  0.000558  ( 0.020202 -0.012228  0.000300)
 31:   1152.86   0.003427   17.32  0.000928  (-0.010718 -0.005858  0.027900)
 32:   1203.01   0.001967    9.94  0.000510  ( 0.015860  0.000478 -0.016077)
 33:   1233.19   0.000185    0.93  0.000047  (-0.005664  0.003086 -0.002278)
 34:   1244.15   0.002154   10.88  0.000540  ( 0.003118 -0.018559 -0.013640)
 35:   1256.87   0.003655   18.47  0.000908  ( 0.002475 -0.011661 -0.027667)
 36:   1293.83   0.000730    3.69  0.000176  ( 0.004736 -0.002649 -0.012109)
 37:   1399.06   0.022072  111.54  0.004923  (-0.050875 -0.025612 -0.040975)
 38:   1439.05   0.001783    9.01  0.000387  (-0.001229 -0.001494 -0.019567)
 39:   1447.26   0.010311   52.11  0.002223  (-0.042953  0.008818  0.017335)
 40:   1506.76   0.007187   36.32  0.001488  ( 0.033444 -0.004735  0.018643)
 41:   1516.96   0.005907   29.85  0.001215  (-0.032844 -0.001218 -0.011621)
 42:   1534.20   0.008653   43.73  0.001760  (-0.040183 -0.011850 -0.002252)
 43:   1568.96   0.001146    5.79  0.000228  (-0.014444  0.002416  0.003682)
 44:   1571.91   0.001328    6.71  0.000264  (-0.003028 -0.005981  0.014791)
 45:   1587.98   0.004381   22.14  0.000861  ( 0.006262 -0.028310 -0.004509)
 46:   1589.99   0.000764    3.86  0.000150  (-0.010890 -0.002253 -0.005131)
 47:   1592.95   0.003725   18.82  0.000730  ( 0.004195 -0.024076 -0.011509)
 48:   1607.53   0.000253    1.28  0.000049  (-0.002894 -0.005464 -0.003300)
 49:   1616.92   0.000604    3.05  0.000117  ( 0.005061 -0.005752  0.007605)
 50:   1702.23   0.052176  263.68  0.009565  (-0.090594  0.000942 -0.036838)
 51:   1743.01   0.064673  326.83  0.011579  (-0.067748  0.066031  0.051274)
 52:   1935.39   0.046386  234.42  0.007479  (-0.005991  0.082136  0.026403)
 53:   1963.11   0.096041  485.35  0.015267  (-0.084878  0.069424 -0.056948)
 54:   3182.58   0.012314   62.23  0.001207  (-0.016672  0.005338  0.030017)
 55:   3193.40   0.004022   20.33  0.000393  (-0.012582 -0.006053  0.014075)
 56:   3202.77   0.001114    5.63  0.000109  ( 0.003144  0.009672  0.002266)
 57:   3267.76   0.006999   35.37  0.000668  (-0.004163 -0.025259  0.003617)
 58:   3271.62   0.005001   25.27  0.000477  (-0.008795 -0.010523 -0.016998)
 59:   3280.35   0.001809    9.14  0.000172  (-0.009731  0.008791 -0.000270)
 60:   3298.57   0.001254    6.34  0.000119  (-0.005166  0.006480  0.007068)
 61:   3304.08   0.002388   12.07  0.000225  (-0.005153  0.013844 -0.002700)
 62:   3310.80   0.002823   14.26  0.000266  ( 0.015224 -0.003373  0.004784)
 63:   3324.16   0.001710    8.64  0.000161  (-0.010647  0.006520  0.002154)
 64:   3819.69   0.036807  186.01  0.003007  (-0.036275 -0.000662 -0.041120)
 65:   3893.35   0.011476   57.99  0.000920  ( 0.009602 -0.028758  0.000782)

* The epsilon (eps) is given for a Dirac delta lineshape.
** The dipole moment derivative (T) already includes vibrational overlap.

The first frequency considered to be a vibration is 7
The total number of vibrations considered is 59


--------------------------
THERMOCHEMISTRY AT 298.15K
--------------------------

Temperature         ... 298.15 K
Pressure            ... 1.00 atm
Total Mass          ... 144.17 AMU

Throughout the following assumptions are being made:
  (1) The electronic state is orbitally nondegenerate
  (2) There are no thermally accessible electronically excited states
  (3) Hindered rotations indicated by low frequency modes are not
      treated as such but are treated as vibrations and this may
      cause some error
  (4) All equations used are the standard statistical mechanics
      equations for an ideal gas
  (5) All vibrations are strictly harmonic

freq.      46.76  E(vib)   ...       0.53 
freq.      67.62  E(vib)   ...       0.50 
freq.      81.11  E(vib)   ...       0.48 
freq.     129.64  E(vib)   ...       0.43 
freq.     154.08  E(vib)   ...       0.40 
freq.     206.16  E(vib)   ...       0.35 
freq.     228.38  E(vib)   ...       0.32 
freq.     262.52  E(vib)   ...       0.29 
freq.     282.90  E(vib)   ...       0.28 
freq.     348.15  E(vib)   ...       0.23 
freq.     397.86  E(vib)   ...       0.20 
freq.     428.23  E(vib)   ...       0.18 
freq.     505.92  E(vib)   ...       0.14 
freq.     575.04  E(vib)   ...       0.11 
freq.     664.63  E(vib)   ...       0.08 
freq.     697.77  E(vib)   ...       0.07 
freq.     710.66  E(vib)   ...       0.07 
freq.     747.12  E(vib)   ...       0.06 
freq.     872.41  E(vib)   ...       0.04 
freq.     911.42  E(vib)   ...       0.03 
freq.     987.67  E(vib)   ...       0.02 
freq.    1018.67  E(vib)   ...       0.02 
freq.    1086.67  E(vib)   ...       0.02 
freq.    1118.78  E(vib)   ...       0.01 
freq.    1152.86  E(vib)   ...       0.01 
freq.    1203.01  E(vib)   ...       0.01 
freq.    1233.19  E(vib)   ...       0.01 
freq.    1244.15  E(vib)   ...       0.01 
freq.    1256.87  E(vib)   ...       0.01 
freq.    1293.83  E(vib)   ...       0.01 
freq.    1399.06  E(vib)   ...       0.00 
freq.    1439.05  E(vib)   ...       0.00 
freq.    1447.26  E(vib)   ...       0.00 
freq.    1506.76  E(vib)   ...       0.00 
freq.    1516.96  E(vib)   ...       0.00 
freq.    1534.20  E(vib)   ...       0.00 
freq.    1568.96  E(vib)   ...       0.00 
freq.    1571.91  E(vib)   ...       0.00 
freq.    1587.98  E(vib)   ...       0.00 
freq.    1589.99  E(vib)   ...       0.00 
freq.    1592.95  E(vib)   ...       0.00 
freq.    1607.53  E(vib)   ...       0.00 
freq.    1616.92  E(vib)   ...       0.00 
freq.    1702.23  E(vib)   ...       0.00 
freq.    1743.01  E(vib)   ...       0.00 
freq.    1935.39  E(vib)   ...       0.00 
freq.    1963.11  E(vib)   ...       0.00 
freq.    3182.58  E(vib)   ...       0.00 
freq.    3193.40  E(vib)   ...       0.00 
freq.    3202.77  E(vib)   ...       0.00 
freq.    3267.76  E(vib)   ...       0.00 
freq.    3271.62  E(vib)   ...       0.00 
freq.    3280.35  E(vib)   ...       0.00 
freq.    3298.57  E(vib)   ...       0.00 
freq.    3304.08  E(vib)   ...       0.00 
freq.    3310.80  E(vib)   ...       0.00 
freq.    3324.16  E(vib)   ...       0.00 
freq.    3819.69  E(vib)   ...       0.00 
freq.    3893.35  E(vib)   ...       0.00 

------------
INNER ENERGY
------------

The inner energy is: U= E(el) + E(ZPE) + E(vib) + E(rot) + E(trans)
    E(el)   - is the total energy from the electronic structure calculation
              = E(kin-el) + E(nuc-el) + E(el-el) + E(nuc-nuc)
    E(ZPE)  - the the zero temperature vibrational energy from the frequency calculation
    E(vib)  - the the finite temperature correction to E(ZPE) due to population
              of excited vibrational states
    E(rot)  - is the rotational thermal energy
    E(trans)- is the translational thermal energy

Summary of contributions to the inner energy U:
Electronic energy                ...   -492.49535304 Eh
Zero point energy                ...      0.19953680 Eh     125.21 kcal/mol
Thermal vibrational correction   ...      0.00789064 Eh       4.95 kcal/mol
Thermal rotational correction    ...      0.00141627 Eh       0.89 kcal/mol
Thermal translational correction ...      0.00141627 Eh       0.89 kcal/mol
-----------------------------------------------------------------------
Total thermal energy                   -492.28509306 Eh


Summary of corrections to the electronic energy:
(perhaps to be used in another calculation)
Total thermal correction                  0.01072318 Eh       6.73 kcal/mol
Non-thermal (ZPE) correction              0.19953680 Eh     125.21 kcal/mol
-----------------------------------------------------------------------
Total correction                          0.21025998 Eh     131.94 kcal/mol


--------
ENTHALPY
--------

The enthalpy is H = U + kB*T
                kB is Boltzmann's constant
Total free energy                 ...   -492.28509306 Eh 
Thermal Enthalpy correction       ...      0.00094421 Eh       0.59 kcal/mol
-----------------------------------------------------------------------
Total Enthalpy                    ...   -492.28414885 Eh


Note: Only C1 symmetry has been detected, increase convergence thresholds 
      if your molecule has a higher symmetry. Symmetry factor of 1.0 is   
      used for the rotational entropy correction. 
 

Note: Rotational entropy computed according to Herzberg 
Infrared and Raman Spectra, Chapter V,1, Van Nostrand Reinhold, 1945 
Point Group:  C1, Symmetry Number:   1  
Rotational constants in cm-1:     0.064825     0.030055     0.025912 

Vibrational entropy computed according to the QRRHO of S. Grimme
Chem.Eur.J. 2012 18 9955


-------
ENTROPY
-------

The entropy contributions are T*S = T*(S(el)+S(vib)+S(rot)+S(trans))
     S(el)   - electronic entropy
     S(vib)  - vibrational entropy
     S(rot)  - rotational entropy
     S(trans)- translational entropy
The entropies will be listed as multiplied by the temperature to get
units of energy

Electronic entropy                ...      0.00000000 Eh      0.00 kcal/mol
Vibrational entropy               ...      0.01393252 Eh      8.74 kcal/mol
Rotational entropy                ...      0.01418159 Eh      8.90 kcal/mol
Translational entropy             ...      0.01938939 Eh     12.17 kcal/mol
-----------------------------------------------------------------------
Final entropy term                ...      0.04750350 Eh     29.81 kcal/mol

In case the symmetry of your molecule has not been determined correctly
or in case you have a reason to use a different symmetry number we print 
out the resulting rotational entropy values for sn=1,12 :
 --------------------------------------------------------
|  sn= 1 | S(rot)=       0.01418159 Eh      8.90 kcal/mol|
|  sn= 2 | S(rot)=       0.01352714 Eh      8.49 kcal/mol|
|  sn= 3 | S(rot)=       0.01314431 Eh      8.25 kcal/mol|
|  sn= 4 | S(rot)=       0.01287268 Eh      8.08 kcal/mol|
|  sn= 5 | S(rot)=       0.01266199 Eh      7.95 kcal/mol|
|  sn= 6 | S(rot)=       0.01248985 Eh      7.84 kcal/mol|
|  sn= 7 | S(rot)=       0.01234430 Eh      7.75 kcal/mol|
|  sn= 8 | S(rot)=       0.01221823 Eh      7.67 kcal/mol|
|  sn= 9 | S(rot)=       0.01210702 Eh      7.60 kcal/mol|
|  sn=10 | S(rot)=       0.01200754 Eh      7.53 kcal/mol|
|  sn=11 | S(rot)=       0.01191755 Eh      7.48 kcal/mol|
|  sn=12 | S(rot)=       0.01183539 Eh      7.43 kcal/mol|
 --------------------------------------------------------


-------------------
GIBBS FREE ENERGY
-------------------

The Gibbs free energy is G = H - T*S

Total enthalpy                    ...   -492.28414885 Eh 
Total entropy correction          ...     -0.04750350 Eh    -29.81 kcal/mol
-----------------------------------------------------------------------
Final Gibbs free energy         ...   -492.33165235 Eh

For completeness - the Gibbs free energy minus the electronic energy
G-E(el)                           ...      0.16370070 Eh    102.72 kcal/mol


Timings for individual modules:

Sum of individual times         ...     2667.049 sec (=  44.451 min)
GTO integral calculation        ...        4.477 sec (=   0.075 min)   0.2 %
SCF iterations                  ...      704.162 sec (=  11.736 min)  26.4 %
SCF Gradient evaluation         ...      314.333 sec (=   5.239 min)  11.8 %
Geometry relaxation             ...        0.516 sec (=   0.009 min)   0.0 %
Analytical frequency calculation...     1643.561 sec (=  27.393 min)  61.6 %
                             ****ORCA TERMINATED NORMALLY****
TOTAL RUN TIME: 0 days 0 hours 44 minutes 28 seconds 316 msec
